<?xml version="1.0" encoding="ISO-8859-1"?>
<modeling>
 <generator>
  <i name="program" type="string">vasp </i>
  <i name="version" type="string">5.4.4.18Apr17-6-g9f103f2a35  </i>
  <i name="subversion" type="string">(build Apr 28 2017 11:12:57) complex            parallel </i>
  <i name="platform" type="string">LinuxIFC </i>
  <i name="date" type="string">2018 06 27 </i>
  <i name="time" type="string">23:34:28 </i>
 </generator>
 <incar>
  <i type="string" name="PREC">accurate</i>
  <i type="int" name="IALGO">    38</i>
  <i type="int" name="IBRION">    -1</i>
  <i name="EDIFF">      0.00000001</i>
  <i type="int" name="ISYM">     0</i>
  <i name="ENCUT">    270.00000000</i>
  <i type="logical" name="LREAL"> F  </i>
  <i type="int" name="ISMEAR">     0</i>
  <i name="SIGMA">      0.01000000</i>
  <i type="logical" name="LWAVE"> F  </i>
  <i type="logical" name="LCHARG"> F  </i>
  <v type="int" name="KPOINT_BSE">    -1     0     0     0</v>
 </incar>
 <structure name="primitive_cell" >
  <crystal>
   <varray name="basis" >
    <v>      12.74739769       0.00000000       0.00000000 </v>
    <v>       0.00000000      12.74739769       0.00000000 </v>
    <v>       0.00000000       0.00000000      12.74739769 </v>
   </varray>
   <i name="volume">   2071.40301882 </i>
   <varray name="rec_basis" >
    <v>       0.07844738       0.00000000       0.00000000 </v>
    <v>       0.00000000       0.07844738       0.00000000 </v>
    <v>       0.00000000       0.00000000       0.07844738 </v>
   </varray>
  </crystal>
  <varray name="positions" >
   <v>       0.00000000       0.00000000       0.00000000 </v>
   <v>       0.12960836       0.12960836       0.12960836 </v>
   <v>      -0.12960836       0.12960836       0.12960836 </v>
   <v>       0.12960836      -0.12960836       0.12960836 </v>
   <v>      -0.12960836      -0.12960836       0.12960836 </v>
   <v>       0.12960836       0.12960836      -0.12960836 </v>
   <v>      -0.12960836       0.12960836      -0.12960836 </v>
   <v>       0.12960836      -0.12960836      -0.12960836 </v>
   <v>      -0.12960836      -0.12960836      -0.12960836 </v>
   <v>       0.25140293       0.25140293       0.00000000 </v>
   <v>      -0.25140293       0.25140293       0.00000000 </v>
   <v>       0.25140293      -0.25140293       0.00000000 </v>
   <v>      -0.25140293      -0.25140293       0.00000000 </v>
   <v>       0.25140293       0.00000000       0.25140293 </v>
   <v>      -0.25140293       0.00000000       0.25140293 </v>
   <v>       0.25140293       0.00000000      -0.25140293 </v>
   <v>      -0.25140293       0.00000000      -0.25140293 </v>
   <v>       0.00000000       0.25140293       0.25140293 </v>
   <v>       0.00000000      -0.25140293       0.25140293 </v>
   <v>       0.00000000       0.25140293      -0.25140293 </v>
   <v>       0.00000000      -0.25140293      -0.25140293 </v>
   <v>      -0.37500196       0.12507203       0.12507203 </v>
   <v>       0.12507203      -0.37578643       0.12507203 </v>
   <v>       0.12507203       0.12507203      -0.37578643 </v>
   <v>       0.37578643       0.12507203       0.12507203 </v>
   <v>      -0.12507203      -0.37578643       0.12507203 </v>
   <v>      -0.12507203       0.12507203      -0.37578643 </v>
   <v>       0.12507203       0.37578643       0.12507203 </v>
   <v>      -0.37578643      -0.12507203       0.12507203 </v>
   <v>       0.12507203      -0.12507203      -0.37578643 </v>
   <v>      -0.12507203       0.37578643       0.12507203 </v>
   <v>       0.37578643      -0.12507203       0.12507203 </v>
   <v>      -0.12507203      -0.12507203      -0.37578643 </v>
   <v>       0.12507203       0.12507203       0.37578643 </v>
   <v>      -0.37578643       0.12507203      -0.12507203 </v>
   <v>       0.12507203      -0.37578643      -0.12507203 </v>
   <v>      -0.12507203       0.12507203       0.37578643 </v>
   <v>       0.37578643       0.12507203      -0.12507203 </v>
   <v>      -0.12507203      -0.37578643      -0.12507203 </v>
   <v>       0.12507203      -0.12507203       0.37578643 </v>
   <v>       0.12507203       0.37578643      -0.12507203 </v>
   <v>      -0.37578643      -0.12507203      -0.12507203 </v>
   <v>      -0.12507203      -0.12507203       0.37578643 </v>
   <v>      -0.12507203       0.37578643      -0.12507203 </v>
   <v>       0.37578643      -0.12507203      -0.12507203 </v>
   <v>      -0.50000000       0.00000000       0.00000000 </v>
   <v>       0.00000000      -0.50000000       0.00000000 </v>
   <v>       0.00000000       0.00000000      -0.50000000 </v>
   <v>      -0.37544727      -0.37544727       0.12469540 </v>
   <v>      -0.37544727       0.12469540      -0.37544727 </v>
   <v>       0.12469540      -0.37544727      -0.37544727 </v>
   <v>       0.37544727      -0.37544727       0.12469540 </v>
   <v>       0.37544727       0.12469540      -0.37544727 </v>
   <v>      -0.12469540      -0.37544727      -0.37544727 </v>
   <v>      -0.37544727       0.37544727       0.12469540 </v>
   <v>       0.12469540       0.37544727      -0.37544727 </v>
   <v>      -0.37544727      -0.12469540      -0.37544727 </v>
   <v>       0.37544727       0.37544727       0.12469540 </v>
   <v>      -0.12469540       0.37544727      -0.37544727 </v>
   <v>       0.37544727      -0.12469540      -0.37544727 </v>
   <v>      -0.37544727       0.12469540       0.37544727 </v>
   <v>       0.12469540      -0.37544727       0.37544727 </v>
   <v>      -0.37544727      -0.37544727      -0.12469540 </v>
   <v>       0.37544727       0.12469540       0.37544727 </v>
   <v>      -0.12469540      -0.37544727       0.37544727 </v>
   <v>       0.37544727      -0.37544727      -0.12469540 </v>
   <v>       0.12469540       0.37544727       0.37544727 </v>
   <v>      -0.37544727      -0.12469540       0.37544727 </v>
   <v>      -0.37544727       0.37544727      -0.12469540 </v>
   <v>      -0.12469540       0.37544727       0.37544727 </v>
   <v>       0.37544727      -0.12469540       0.37544727 </v>
   <v>       0.37544727       0.37544727      -0.12469540 </v>
   <v>       0.25012668       0.25012668      -0.50000000 </v>
   <v>      -0.25012668       0.25012668      -0.50000000 </v>
   <v>       0.25012668      -0.25012668      -0.50000000 </v>
   <v>      -0.25012668      -0.25012668      -0.50000000 </v>
   <v>       0.25012668      -0.50000000       0.25012668 </v>
   <v>      -0.25012668      -0.50000000       0.25012668 </v>
   <v>       0.25012668      -0.50000000      -0.25012668 </v>
   <v>      -0.25012668      -0.50000000      -0.25012668 </v>
   <v>      -0.50000000       0.25012668       0.25012668 </v>
   <v>      -0.50000000      -0.25012668       0.25012668 </v>
   <v>      -0.50000000       0.25012668      -0.25012668 </v>
   <v>      -0.50000000      -0.25012668      -0.25012668 </v>
   <v>      -0.37491761      -0.37491761      -0.37491761 </v>
   <v>       0.37491761      -0.37491761      -0.37491761 </v>
   <v>      -0.37491761       0.37491761      -0.37491761 </v>
   <v>       0.37491761       0.37491761      -0.37491761 </v>
   <v>      -0.37491761      -0.37491761       0.37491761 </v>
   <v>       0.37491761      -0.37491761       0.37491761 </v>
   <v>      -0.37491761       0.37491761       0.37491761 </v>
   <v>       0.37491761       0.37491761       0.37491761 </v>
   <v>      -0.50000000      -0.50000000       0.00000000 </v>
   <v>      -0.50000000       0.00000000      -0.50000000 </v>
   <v>       0.00000000      -0.50000000      -0.50000000 </v>
   <v>      -0.50000000      -0.50000000      -0.50000000 </v>
  </varray>
 </structure>
 <varray name="primitive_index" >
  <v type="int" >        1 </v>
  <v type="int" >       33 </v>
  <v type="int" >       42 </v>
  <v type="int" >       51 </v>
  <v type="int" >       60 </v>
  <v type="int" >       69 </v>
  <v type="int" >       78 </v>
  <v type="int" >       87 </v>
  <v type="int" >       96 </v>
  <v type="int" >        9 </v>
  <v type="int" >       10 </v>
  <v type="int" >       11 </v>
  <v type="int" >       12 </v>
  <v type="int" >       17 </v>
  <v type="int" >       18 </v>
  <v type="int" >       21 </v>
  <v type="int" >       22 </v>
  <v type="int" >       25 </v>
  <v type="int" >       27 </v>
  <v type="int" >       29 </v>
  <v type="int" >       31 </v>
  <v type="int" >       34 </v>
  <v type="int" >       35 </v>
  <v type="int" >       37 </v>
  <v type="int" >       41 </v>
  <v type="int" >       44 </v>
  <v type="int" >       46 </v>
  <v type="int" >       49 </v>
  <v type="int" >       52 </v>
  <v type="int" >       55 </v>
  <v type="int" >       58 </v>
  <v type="int" >       59 </v>
  <v type="int" >       64 </v>
  <v type="int" >       65 </v>
  <v type="int" >       70 </v>
  <v type="int" >       71 </v>
  <v type="int" >       74 </v>
  <v type="int" >       77 </v>
  <v type="int" >       80 </v>
  <v type="int" >       83 </v>
  <v type="int" >       85 </v>
  <v type="int" >       88 </v>
  <v type="int" >       92 </v>
  <v type="int" >       94 </v>
  <v type="int" >       95 </v>
  <v type="int" >        2 </v>
  <v type="int" >        3 </v>
  <v type="int" >        5 </v>
  <v type="int" >       36 </v>
  <v type="int" >       38 </v>
  <v type="int" >       39 </v>
  <v type="int" >       43 </v>
  <v type="int" >       45 </v>
  <v type="int" >       48 </v>
  <v type="int" >       50 </v>
  <v type="int" >       53 </v>
  <v type="int" >       56 </v>
  <v type="int" >       57 </v>
  <v type="int" >       62 </v>
  <v type="int" >       63 </v>
  <v type="int" >       66 </v>
  <v type="int" >       67 </v>
  <v type="int" >       72 </v>
  <v type="int" >       73 </v>
  <v type="int" >       76 </v>
  <v type="int" >       79 </v>
  <v type="int" >       81 </v>
  <v type="int" >       84 </v>
  <v type="int" >       86 </v>
  <v type="int" >       90 </v>
  <v type="int" >       91 </v>
  <v type="int" >       93 </v>
  <v type="int" >       13 </v>
  <v type="int" >       14 </v>
  <v type="int" >       15 </v>
  <v type="int" >       16 </v>
  <v type="int" >       19 </v>
  <v type="int" >       20 </v>
  <v type="int" >       23 </v>
  <v type="int" >       24 </v>
  <v type="int" >       26 </v>
  <v type="int" >       28 </v>
  <v type="int" >       30 </v>
  <v type="int" >       32 </v>
  <v type="int" >       40 </v>
  <v type="int" >       47 </v>
  <v type="int" >       54 </v>
  <v type="int" >       61 </v>
  <v type="int" >       68 </v>
  <v type="int" >       75 </v>
  <v type="int" >       82 </v>
  <v type="int" >       89 </v>
  <v type="int" >        4 </v>
  <v type="int" >        6 </v>
  <v type="int" >        7 </v>
  <v type="int" >        8 </v>
 </varray>
 <kpoints>
  <generation param="Gamma">
   <v type="int" name="divisions">       1        1        1 </v>
   <v name="usershift">      0.00000000       0.00000000       0.00000000 </v>
   <v name="genvec1">      1.00000000       0.00000000       0.00000000 </v>
   <v name="genvec2">      0.00000000       1.00000000       0.00000000 </v>
   <v name="genvec3">      0.00000000       0.00000000       1.00000000 </v>
   <v name="shift">      0.00000000       0.00000000       0.00000000 </v>
  </generation>
  <varray name="kpointlist" >
   <v>       0.00000000       0.00000000       0.00000000 </v>
  </varray>
  <varray name="weights" >
   <v>       1.00000000 </v>
  </varray>
 </kpoints>
 <parameters>
  <separator name="general" >
   <i type="string" name="SYSTEM">unknown system</i>
   <i type="logical" name="LCOMPAT"> F  </i>
  </separator>
  <separator name="electronic" >
   <i type="string" name="PREC">accura</i>
   <i name="ENMAX">    270.00000000</i>
   <i name="ENAUG">    454.73400000</i>
   <i name="EDIFF">      0.00000001</i>
   <i type="int" name="IALGO">    38</i>
   <i type="int" name="IWAVPR">    10</i>
   <i type="int" name="NBANDS">   178</i>
   <i name="NELECT">    256.00000000</i>
   <i type="int" name="TURBO">     0</i>
   <i type="int" name="IRESTART">     0</i>
   <i type="int" name="NREBOOT">     0</i>
   <i type="int" name="NMIN">     0</i>
   <i name="EREF">      0.00000000</i>
   <separator name="electronic smearing" >
    <i type="int" name="ISMEAR">     0</i>
    <i name="SIGMA">      0.01000000</i>
    <i name="KSPACING">      0.50000000</i>
    <i type="logical" name="KGAMMA"> T  </i>
   </separator>
   <separator name="electronic projectors" >
    <i type="logical" name="LREAL"> F  </i>
    <v name="ROPT">      0.00000000      0.00000000      0.00000000</v>
    <i type="int" name="LMAXPAW">  -100</i>
    <i type="int" name="LMAXMIX">     2</i>
    <i type="logical" name="NLSPLINE"> F  </i>
   </separator>
   <separator name="electronic startup" >
    <i type="int" name="ISTART">     0</i>
    <i type="int" name="ICHARG">     2</i>
    <i type="int" name="INIWAV">     1</i>
   </separator>
   <separator name="electronic spin" >
    <i type="int" name="ISPIN">     1</i>
    <i type="logical" name="LNONCOLLINEAR"> F  </i>
    <v name="MAGMOM">      1.00000000      1.00000000      1.00000000      1.00000000      1.00000000      1.00000000      1.00000000      1.00000000      1.00000000      1.00000000      1.00000000      1.00000000      1.00000000      1.00000000      1.00000000      1.00000000      1.00000000      1.00000000      1.00000000      1.00000000
      1.00000000      1.00000000      1.00000000      1.00000000      1.00000000      1.00000000      1.00000000      1.00000000      1.00000000      1.00000000      1.00000000      1.00000000      1.00000000      1.00000000      1.00000000      1.00000000      1.00000000      1.00000000      1.00000000      1.00000000
      1.00000000      1.00000000      1.00000000      1.00000000      1.00000000      1.00000000      1.00000000      1.00000000      1.00000000      1.00000000      1.00000000      1.00000000      1.00000000      1.00000000      1.00000000      1.00000000      1.00000000      1.00000000      1.00000000      1.00000000
      1.00000000      1.00000000      1.00000000      1.00000000      1.00000000      1.00000000      1.00000000      1.00000000      1.00000000      1.00000000      1.00000000      1.00000000      1.00000000      1.00000000      1.00000000      1.00000000      1.00000000      1.00000000      1.00000000      1.00000000
      1.00000000      1.00000000      1.00000000      1.00000000      1.00000000      1.00000000      1.00000000      1.00000000      1.00000000      1.00000000      1.00000000      1.00000000      1.00000000      1.00000000      1.00000000      1.00000000</v>
    <i name="NUPDOWN">     -1.00000000</i>
    <i type="logical" name="LSORBIT"> F  </i>
    <v name="SAXIS">      0.00000000      0.00000000      1.00000000</v>
    <i type="logical" name="LSPIRAL"> F  </i>
    <v name="QSPIRAL">      0.00000000      0.00000000      0.00000000</v>
    <i type="logical" name="LZEROZ"> F  </i>
   </separator>
   <separator name="electronic exchange-correlation" >
    <i type="logical" name="LASPH"> F  </i>
    <i type="logical" name="LMETAGGA"> F  </i>
   </separator>
   <separator name="electronic convergence" >
    <i type="int" name="NELM">    60</i>
    <i type="int" name="NELMDL">    -5</i>
    <i type="int" name="NELMIN">     2</i>
    <i name="ENINI">    270.00000000</i>
    <separator name="electronic convergence detail" >
     <i type="logical" name="LDIAG"> T  </i>
     <i type="logical" name="LSUBROT"> F  </i>
     <i name="WEIMIN">      0.00000000</i>
     <i name="EBREAK">      0.00000000</i>
     <i name="DEPER">      0.30000000</i>
     <i type="int" name="NRMM">     4</i>
     <i name="TIME">      0.40000000</i>
    </separator>
   </separator>
   <separator name="electronic mixer" >
    <i name="AMIX">      0.40000000</i>
    <i name="BMIX">      1.00000000</i>
    <i name="AMIN">      0.10000000</i>
    <i name="AMIX_MAG">      1.60000000</i>
    <i name="BMIX_MAG">      1.00000000</i>
    <separator name="electronic mixer details" >
     <i type="int" name="IMIX">     4</i>
     <i type="logical" name="MIXFIRST"> F  </i>
     <i type="int" name="MAXMIX">   -45</i>
     <i name="WC">    100.00000000</i>
     <i type="int" name="INIMIX">     1</i>
     <i type="int" name="MIXPRE">     1</i>
     <i type="int" name="MREMOVE">     5</i>
    </separator>
   </separator>
   <separator name="electronic dipolcorrection" >
    <i type="logical" name="LDIPOL"> F  </i>
    <i type="logical" name="LMONO"> F  </i>
    <i type="int" name="IDIPOL">     0</i>
    <i name="EPSILON">      1.00000000</i>
    <v name="DIPOL">   -100.00000000   -100.00000000   -100.00000000</v>
    <i name="EFIELD">      0.00000000</i>
   </separator>
  </separator>
  <separator name="grids" >
   <i type="int" name="NGX">    70</i>
   <i type="int" name="NGY">    70</i>
   <i type="int" name="NGZ">    70</i>
   <i type="int" name="NGXF">   140</i>
   <i type="int" name="NGYF">   140</i>
   <i type="int" name="NGZF">   140</i>
   <i type="logical" name="ADDGRID"> F  </i>
  </separator>
  <separator name="ionic" >
   <i type="int" name="NSW">     0</i>
   <i type="int" name="IBRION">    -1</i>
   <i type="int" name="MDALGO">     0</i>
   <i type="int" name="ISIF">     2</i>
   <i name="PSTRESS">      0.00000000</i>
   <i name="EDIFFG">      0.00000010</i>
   <i type="int" name="NFREE">     0</i>
   <i name="POTIM">      0.50000000</i>
   <i name="SMASS">     -3.00000000</i>
   <i name="SCALEE">      1.00000000</i>
  </separator>
  <separator name="ionic md" >
   <i name="TEBEG">      0.00010000</i>
   <i name="TEEND">      0.00010000</i>
   <i type="int" name="NBLOCK">     1</i>
   <i type="int" name="KBLOCK">     1</i>
   <i type="int" name="NPACO">   256</i>
   <i name="APACO">     16.00000000</i>
  </separator>
  <separator name="symmetry" >
   <i type="int" name="ISYM">     0</i>
   <i name="SYMPREC">      0.00001000</i>
  </separator>
  <separator name="dos" >
   <i type="int" name="LORBIT">     0</i>
   <v name="RWIGS">     -1.00000000     -1.00000000     -1.00000000</v>
   <i type="int" name="NEDOS">   301</i>
   <i name="EMIN">     10.00000000</i>
   <i name="EMAX">    -10.00000000</i>
   <i name="EFERMI">      0.00000000</i>
  </separator>
  <separator name="writing" >
   <i type="int" name="NWRITE">     2</i>
   <i type="logical" name="LWAVE"> F  </i>
   <i type="logical" name="LDOWNSAMPLE"> F  </i>
   <i type="logical" name="LCHARG"> F  </i>
   <i type="logical" name="LPARD"> F  </i>
   <i type="logical" name="LVTOT"> F  </i>
   <i type="logical" name="LVHAR"> F  </i>
   <i type="logical" name="LELF"> F  </i>
   <i type="logical" name="LOPTICS"> F  </i>
   <v name="STM">      0.00000000      0.00000000      0.00000000      0.00000000      0.00000000      0.00000000      0.00000000</v>
  </separator>
  <separator name="performance" >
   <i type="int" name="NPAR">     2</i>
   <i type="int" name="NSIM">     4</i>
   <i type="int" name="NBLK">    -1</i>
   <i type="logical" name="LPLANE"> T  </i>
   <i type="logical" name="LSCALAPACK"> T  </i>
   <i type="logical" name="LSCAAWARE"> F  </i>
   <i type="logical" name="LSCALU"> F  </i>
   <i type="logical" name="LASYNC"> F  </i>
   <i type="logical" name="LORBITALREAL"> F  </i>
  </separator>
  <separator name="miscellaneous" >
   <i type="int" name="IDIOT">     3</i>
   <i type="int" name="ISPECIAL">     0</i>
   <i type="logical" name="LMUSIC"> F  </i>
   <v name="POMASS">    118.71000000     28.08500000     24.30500000</v>
   <v name="DARWINR">      0.00000000      0.00000000      0.00000000</v>
   <v name="DARWINV">      1.00000000      1.00000000      1.00000000</v>
   <i type="logical" name="LCORR"> T  </i>
  </separator>
  <i type="logical" name="GGA_COMPAT"> T  </i>
  <i type="logical" name="LBERRY"> F  </i>
  <i type="int" name="ICORELEVEL">     0</i>
  <i type="logical" name="LDAU"> F  </i>
  <i type="int" name="I_CONSTRAINED_M">     0</i>
  <separator name="electronic exchange-correlation" >
   <i type="string" name="GGA">--</i>
   <i type="int" name="VOSKOWN">     0</i>
   <i type="logical" name="LHFCALC"> F  </i>
   <i type="string" name="PRECFOCK"></i>
   <i type="logical" name="LSYMGRAD"> F  </i>
   <i type="logical" name="LHFONE"> F  </i>
   <i type="logical" name="LRHFCALC"> F  </i>
   <i type="logical" name="LTHOMAS"> F  </i>
   <i type="logical" name="LMODELHF"> F  </i>
   <i name="ENCUT4O">     -1.00000000</i>
   <i type="int" name="EXXOEP">     0</i>
   <i type="int" name="FOURORBIT">     0</i>
   <i name="AEXX">      0.00000000</i>
   <i name="HFALPHA">      0.00000000</i>
   <i name="MCALPHA">      0.00000000</i>
   <i name="ALDAX">      1.00000000</i>
   <i name="AGGAX">      1.00000000</i>
   <i name="ALDAC">      1.00000000</i>
   <i name="AGGAC">      1.00000000</i>
   <i type="int" name="NKREDX">     1</i>
   <i type="int" name="NKREDY">     1</i>
   <i type="int" name="NKREDZ">     1</i>
   <i type="logical" name="SHIFTRED"> F  </i>
   <i type="logical" name="ODDONLY"> F  </i>
   <i type="logical" name="EVENONLY"> F  </i>
   <i type="int" name="LMAXFOCK">     0</i>
   <i type="int" name="NMAXFOCKAE">     0</i>
   <i type="logical" name="LFOCKAEDFT"> F  </i>
   <i name="HFSCREEN">      0.00000000</i>
   <i name="HFSCREENC">      0.00000000</i>
   <i type="int" name="NBANDSGWLOW">     0</i>
  </separator>
  <separator name="vdW DFT" >
   <i type="logical" name="LUSE_VDW"> F  </i>
   <i name="Zab_VDW">     -0.84910000</i>
   <i name="PARAM1">      0.12340000</i>
   <i name="PARAM2">      1.00000000</i>
   <i name="PARAM3">      0.00000000</i>
  </separator>
  <separator name="model GW" >
   <i type="int" name="MODEL_GW">     0</i>
   <i name="MODEL_EPS0">     12.94626887</i>
   <i name="MODEL_ALPHA">      1.00000000</i>
  </separator>
  <separator name="linear response parameters" >
   <i type="logical" name="LEPSILON"> F  </i>
   <i type="logical" name="LRPA"> F  </i>
   <i type="logical" name="LNABLA"> F  </i>
   <i type="logical" name="LVEL"> F  </i>
   <i type="int" name="KINTER">     0</i>
   <i name="CSHIFT">      0.10000000</i>
   <i name="OMEGAMAX">     -1.00000000</i>
   <i name="DEG_THRESHOLD">      0.00200000</i>
   <i name="RTIME">     -0.10000000</i>
   <i name="WPLASMAI">      0.00000000</i>
   <v name="DFIELD">      0.00000000      0.00000000      0.00000000</v>
   <v name="WPLASMA">      0.00000000      0.00000000      0.00000000      0.00000000      0.00000000      0.00000000      0.00000000      0.00000000      0.00000000</v>
  </separator>
  <separator name="orbital magnetization" >
   <i type="logical" name="NUCIND"> F  </i>
   <v name="MAGPOS">      0.00000000      0.00000000      0.00000000</v>
   <i type="logical" name="LNICSALL"> T  </i>
   <i type="logical" name="ORBITALMAG"> F  </i>
   <i type="logical" name="LMAGBLOCH"> F  </i>
   <i type="logical" name="LCHIMAG"> F  </i>
   <i type="logical" name="LGAUGE"> T  </i>
   <i type="int" name="MAGATOM">     0</i>
   <v name="MAGDIPOL">      0.00000000      0.00000000      0.00000000</v>
   <v name="AVECCONST">      0.00000000      0.00000000      0.00000000</v>
  </separator>
  <separator name="response functions" >
   <i type="logical" name="LADDER"> F  </i>
   <i type="logical" name="LRPAFORCE"> F  </i>
   <i type="logical" name="LFXC"> F  </i>
   <i type="logical" name="LHARTREE"> T  </i>
   <i type="int" name="IBSE">     0</i>
   <v type="int" name="KPOINT">    -1     0     0     0</v>
   <i type="logical" name="LTCTE"> F  </i>
   <i type="logical" name="LTETE"> F  </i>
   <i type="logical" name="LTRIPLET"> F  </i>
   <i type="logical" name="LFXCEPS"> F  </i>
   <i type="logical" name="LFXHEG"> F  </i>
   <i type="int" name="NATURALO">     2</i>
   <i type="logical" name="L2ORDER"> F  </i>
   <i type="logical" name="LMP2LT"> F  </i>
   <i type="logical" name="LUSEW"> F  </i>
   <i name="ENCUTGW">     -2.00000000</i>
   <i name="ENCUTGWSOFT">     -2.00000000</i>
   <i name="ENCUTLF">     -1.00000000</i>
   <i type="int" name="LMAXMP2">    -1</i>
   <i name="SCISSOR">      0.00000000</i>
   <i type="int" name="NOMEGA">     0</i>
   <i type="int" name="NOMEGAR">     0</i>
   <i type="int" name="NBANDSGW">    -1</i>
   <i type="int" name="NBANDSO">    -1</i>
   <i type="int" name="NBANDSV">    -1</i>
   <i type="int" name="NELM">     1</i>
   <i type="int" name="NELMHF">     1</i>
   <i type="int" name="DIM">     3</i>
   <i type="int" name="ANTIRES">     0</i>
   <i name="OMEGAMAX">    -30.00000000</i>
   <i name="OMEGAMIN">    -30.00000000</i>
   <i name="OMEGATL">   -200.00000000</i>
   <i type="int" name="OMEGAGRID">   140</i>
   <i name="CSHIFT">     -0.10000000</i>
   <i type="logical" name="SELFENERGY"> F  </i>
   <i type="logical" name="LSPECTRAL"> F  </i>
   <i type="logical" name="LSPECTRALGW"> F  </i>
   <i type="logical" name="LSINGLES"> F  </i>
   <i type="logical" name="LFERMIGW"> F  </i>
   <i type="logical" name="ODDONLYGW"> F  </i>
   <i type="logical" name="EVENONLYGW"> F  </i>
   <i type="int" name="NKREDLFX">     1</i>
   <i type="int" name="NKREDLFY">     1</i>
   <i type="int" name="NKREDLFZ">     1</i>
   <i type="int" name="MAXMEM">  2800</i>
   <i type="int" name="TELESCOPE">     0</i>
   <i type="int" name="TAUPAR">     1</i>
   <i type="int" name="OMEGAPAR">    -1</i>
   <i name="LAMBDA">      1.00000000</i>
  </separator>
  <separator name="External order field" >
   <i name="OFIELD_KAPPA">      0.00000000</i>
   <v name="OFIELD_K">      0.00000000      0.00000000      0.00000000</v>
   <i name="OFIELD_Q6_NEAR">      0.00000000</i>
   <i name="OFIELD_Q6_FAR">      0.00000000</i>
   <i name="OFIELD_A">      0.00000000</i>
  </separator>
 </parameters>
 <atominfo>
  <atoms>      96 </atoms>
  <types>       3 </types>
  <array name="atoms" >
   <dimension dim="1">ion</dimension>
   <field type="string">element</field>
   <field type="int">atomtype</field>
   <set>
    <rc><c>Sn</c><c>   1</c></rc>
    <rc><c>Si</c><c>   2</c></rc>
    <rc><c>Si</c><c>   2</c></rc>
    <rc><c>Si</c><c>   2</c></rc>
    <rc><c>Si</c><c>   2</c></rc>
    <rc><c>Si</c><c>   2</c></rc>
    <rc><c>Si</c><c>   2</c></rc>
    <rc><c>Si</c><c>   2</c></rc>
    <rc><c>Si</c><c>   2</c></rc>
    <rc><c>Si</c><c>   2</c></rc>
    <rc><c>Si</c><c>   2</c></rc>
    <rc><c>Si</c><c>   2</c></rc>
    <rc><c>Si</c><c>   2</c></rc>
    <rc><c>Si</c><c>   2</c></rc>
    <rc><c>Si</c><c>   2</c></rc>
    <rc><c>Si</c><c>   2</c></rc>
    <rc><c>Si</c><c>   2</c></rc>
    <rc><c>Si</c><c>   2</c></rc>
    <rc><c>Si</c><c>   2</c></rc>
    <rc><c>Si</c><c>   2</c></rc>
    <rc><c>Si</c><c>   2</c></rc>
    <rc><c>Si</c><c>   2</c></rc>
    <rc><c>Si</c><c>   2</c></rc>
    <rc><c>Si</c><c>   2</c></rc>
    <rc><c>Si</c><c>   2</c></rc>
    <rc><c>Si</c><c>   2</c></rc>
    <rc><c>Si</c><c>   2</c></rc>
    <rc><c>Si</c><c>   2</c></rc>
    <rc><c>Si</c><c>   2</c></rc>
    <rc><c>Si</c><c>   2</c></rc>
    <rc><c>Si</c><c>   2</c></rc>
    <rc><c>Si</c><c>   2</c></rc>
    <rc><c>Mg</c><c>   3</c></rc>
    <rc><c>Mg</c><c>   3</c></rc>
    <rc><c>Mg</c><c>   3</c></rc>
    <rc><c>Mg</c><c>   3</c></rc>
    <rc><c>Mg</c><c>   3</c></rc>
    <rc><c>Mg</c><c>   3</c></rc>
    <rc><c>Mg</c><c>   3</c></rc>
    <rc><c>Mg</c><c>   3</c></rc>
    <rc><c>Mg</c><c>   3</c></rc>
    <rc><c>Mg</c><c>   3</c></rc>
    <rc><c>Mg</c><c>   3</c></rc>
    <rc><c>Mg</c><c>   3</c></rc>
    <rc><c>Mg</c><c>   3</c></rc>
    <rc><c>Mg</c><c>   3</c></rc>
    <rc><c>Mg</c><c>   3</c></rc>
    <rc><c>Mg</c><c>   3</c></rc>
    <rc><c>Mg</c><c>   3</c></rc>
    <rc><c>Mg</c><c>   3</c></rc>
    <rc><c>Mg</c><c>   3</c></rc>
    <rc><c>Mg</c><c>   3</c></rc>
    <rc><c>Mg</c><c>   3</c></rc>
    <rc><c>Mg</c><c>   3</c></rc>
    <rc><c>Mg</c><c>   3</c></rc>
    <rc><c>Mg</c><c>   3</c></rc>
    <rc><c>Mg</c><c>   3</c></rc>
    <rc><c>Mg</c><c>   3</c></rc>
    <rc><c>Mg</c><c>   3</c></rc>
    <rc><c>Mg</c><c>   3</c></rc>
    <rc><c>Mg</c><c>   3</c></rc>
    <rc><c>Mg</c><c>   3</c></rc>
    <rc><c>Mg</c><c>   3</c></rc>
    <rc><c>Mg</c><c>   3</c></rc>
    <rc><c>Mg</c><c>   3</c></rc>
    <rc><c>Mg</c><c>   3</c></rc>
    <rc><c>Mg</c><c>   3</c></rc>
    <rc><c>Mg</c><c>   3</c></rc>
    <rc><c>Mg</c><c>   3</c></rc>
    <rc><c>Mg</c><c>   3</c></rc>
    <rc><c>Mg</c><c>   3</c></rc>
    <rc><c>Mg</c><c>   3</c></rc>
    <rc><c>Mg</c><c>   3</c></rc>
    <rc><c>Mg</c><c>   3</c></rc>
    <rc><c>Mg</c><c>   3</c></rc>
    <rc><c>Mg</c><c>   3</c></rc>
    <rc><c>Mg</c><c>   3</c></rc>
    <rc><c>Mg</c><c>   3</c></rc>
    <rc><c>Mg</c><c>   3</c></rc>
    <rc><c>Mg</c><c>   3</c></rc>
    <rc><c>Mg</c><c>   3</c></rc>
    <rc><c>Mg</c><c>   3</c></rc>
    <rc><c>Mg</c><c>   3</c></rc>
    <rc><c>Mg</c><c>   3</c></rc>
    <rc><c>Mg</c><c>   3</c></rc>
    <rc><c>Mg</c><c>   3</c></rc>
    <rc><c>Mg</c><c>   3</c></rc>
    <rc><c>Mg</c><c>   3</c></rc>
    <rc><c>Mg</c><c>   3</c></rc>
    <rc><c>Mg</c><c>   3</c></rc>
    <rc><c>Mg</c><c>   3</c></rc>
    <rc><c>Mg</c><c>   3</c></rc>
    <rc><c>Mg</c><c>   3</c></rc>
    <rc><c>Mg</c><c>   3</c></rc>
    <rc><c>Mg</c><c>   3</c></rc>
    <rc><c>Mg</c><c>   3</c></rc>
   </set>
  </array>
  <array name="atomtypes" >
   <dimension dim="1">type</dimension>
   <field type="int">atomspertype</field>
   <field type="string">element</field>
   <field>mass</field>
   <field>valence</field>
   <field type="string">pseudopotential</field>
   <set>
    <rc><c>   1</c><c>Sn</c><c>    118.71000000</c><c>      4.00000000</c><c>  PAW_PBE Sn 08Apr2002                  </c></rc>
    <rc><c>  31</c><c>Si</c><c>     28.08500000</c><c>      4.00000000</c><c>  PAW_PBE Si 05Jan2001                  </c></rc>
    <rc><c>  64</c><c>Mg</c><c>     24.30500000</c><c>      2.00000000</c><c>  PAW_PBE Mg 13Apr2007                  </c></rc>
   </set>
  </array>
 </atominfo>
 <structure name="initialpos" >
  <crystal>
   <varray name="basis" >
    <v>      12.74739769       0.00000000       0.00000000 </v>
    <v>       0.00000000      12.74739769       0.00000000 </v>
    <v>       0.00000000       0.00000000      12.74739769 </v>
   </varray>
   <i name="volume">   2071.40301882 </i>
   <varray name="rec_basis" >
    <v>       0.07844738       0.00000000       0.00000000 </v>
    <v>       0.00000000       0.07844738       0.00000000 </v>
    <v>       0.00000000       0.00000000       0.07844738 </v>
   </varray>
  </crystal>
  <varray name="positions" >
   <v>       0.00000000       0.00000000       0.00000000 </v>
   <v>       0.50000000       0.00000000       0.00000000 </v>
   <v>       0.00000000       0.50000000       0.00000000 </v>
   <v>       0.50000000       0.50000000       0.00000000 </v>
   <v>       0.00000000       0.00000000       0.50000000 </v>
   <v>       0.50000000       0.00000000       0.50000000 </v>
   <v>       0.00000000       0.50000000       0.50000000 </v>
   <v>       0.50000000       0.50000000       0.50000000 </v>
   <v>       0.25140293       0.25140293       0.00000000 </v>
   <v>       0.74859707       0.25140293       0.00000000 </v>
   <v>       0.25140293       0.74859707       0.00000000 </v>
   <v>       0.74859707       0.74859707       0.00000000 </v>
   <v>       0.25012668       0.25012668       0.50000000 </v>
   <v>       0.74987332       0.25012668       0.50000000 </v>
   <v>       0.25012668       0.74987332       0.50000000 </v>
   <v>       0.74987332       0.74987332       0.50000000 </v>
   <v>       0.25140293       0.00000000       0.25140293 </v>
   <v>       0.74859707       0.00000000       0.25140293 </v>
   <v>       0.25012668       0.50000000       0.25012668 </v>
   <v>       0.74987332       0.50000000       0.25012668 </v>
   <v>       0.25140293       0.00000000       0.74859707 </v>
   <v>       0.74859707       0.00000000       0.74859707 </v>
   <v>       0.25012668       0.50000000       0.74987332 </v>
   <v>       0.74987332       0.50000000       0.74987332 </v>
   <v>       0.00000000       0.25140293       0.25140293 </v>
   <v>       0.50000000       0.25012668       0.25012668 </v>
   <v>       0.00000000       0.74859707       0.25140293 </v>
   <v>       0.50000000       0.74987332       0.25012668 </v>
   <v>       0.00000000       0.25140293       0.74859707 </v>
   <v>       0.50000000       0.25012668       0.74987332 </v>
   <v>       0.00000000       0.74859707       0.74859707 </v>
   <v>       0.50000000       0.74987332       0.74987332 </v>
   <v>       0.12960836       0.12960836       0.12960836 </v>
   <v>       0.62499804       0.12507203       0.12507203 </v>
   <v>       0.12507203       0.62421357       0.12507203 </v>
   <v>       0.62455273       0.62455273       0.12469540 </v>
   <v>       0.12507203       0.12507203       0.62421357 </v>
   <v>       0.62455273       0.12469540       0.62455273 </v>
   <v>       0.12469540       0.62455273       0.62455273 </v>
   <v>       0.62508239       0.62508239       0.62508239 </v>
   <v>       0.37578643       0.12507203       0.12507203 </v>
   <v>       0.87039164       0.12960836       0.12960836 </v>
   <v>       0.37544727       0.62455273       0.12469540 </v>
   <v>       0.87492797       0.62421357       0.12507203 </v>
   <v>       0.37544727       0.12469540       0.62455273 </v>
   <v>       0.87492797       0.12507203       0.62421357 </v>
   <v>       0.37491761       0.62508239       0.62508239 </v>
   <v>       0.87530460       0.62455273       0.62455273 </v>
   <v>       0.12507203       0.37578643       0.12507203 </v>
   <v>       0.62455273       0.37544727       0.12469540 </v>
   <v>       0.12960836       0.87039164       0.12960836 </v>
   <v>       0.62421357       0.87492797       0.12507203 </v>
   <v>       0.12469540       0.37544727       0.62455273 </v>
   <v>       0.62508239       0.37491761       0.62508239 </v>
   <v>       0.12507203       0.87492797       0.62421357 </v>
   <v>       0.62455273       0.87530460       0.62455273 </v>
   <v>       0.37544727       0.37544727       0.12469540 </v>
   <v>       0.87492797       0.37578643       0.12507203 </v>
   <v>       0.37578643       0.87492797       0.12507203 </v>
   <v>       0.87039164       0.87039164       0.12960836 </v>
   <v>       0.37491761       0.37491761       0.62508239 </v>
   <v>       0.87530460       0.37544727       0.62455273 </v>
   <v>       0.37544727       0.87530460       0.62455273 </v>
   <v>       0.87492797       0.87492797       0.62421357 </v>
   <v>       0.12507203       0.12507203       0.37578643 </v>
   <v>       0.62455273       0.12469540       0.37544727 </v>
   <v>       0.12469540       0.62455273       0.37544727 </v>
   <v>       0.62508239       0.62508239       0.37491761 </v>
   <v>       0.12960836       0.12960836       0.87039164 </v>
   <v>       0.62421357       0.12507203       0.87492797 </v>
   <v>       0.12507203       0.62421357       0.87492797 </v>
   <v>       0.62455273       0.62455273       0.87530460 </v>
   <v>       0.37544727       0.12469540       0.37544727 </v>
   <v>       0.87492797       0.12507203       0.37578643 </v>
   <v>       0.37491761       0.62508239       0.37491761 </v>
   <v>       0.87530460       0.62455273       0.37544727 </v>
   <v>       0.37578643       0.12507203       0.87492797 </v>
   <v>       0.87039164       0.12960836       0.87039164 </v>
   <v>       0.37544727       0.62455273       0.87530460 </v>
   <v>       0.87492797       0.62421357       0.87492797 </v>
   <v>       0.12469540       0.37544727       0.37544727 </v>
   <v>       0.62508239       0.37491761       0.37491761 </v>
   <v>       0.12507203       0.87492797       0.37578643 </v>
   <v>       0.62455273       0.87530460       0.37544727 </v>
   <v>       0.12507203       0.37578643       0.87492797 </v>
   <v>       0.62455273       0.37544727       0.87530460 </v>
   <v>       0.12960836       0.87039164       0.87039164 </v>
   <v>       0.62421357       0.87492797       0.87492797 </v>
   <v>       0.37491761       0.37491761       0.37491761 </v>
   <v>       0.87530460       0.37544727       0.37544727 </v>
   <v>       0.37544727       0.87530460       0.37544727 </v>
   <v>       0.87492797       0.87492797       0.37578643 </v>
   <v>       0.37544727       0.37544727       0.87530460 </v>
   <v>       0.87492797       0.37578643       0.87492797 </v>
   <v>       0.37578643       0.87492797       0.87492797 </v>
   <v>       0.87039164       0.87039164       0.87039164 </v>
  </varray>
 </structure>
 <calculation>
  <scstep>
   <time name="dav">   13.38   13.42</time>
   <time name="total">   14.17   14.22</time>
   <energy>
    <i name="alphaZ">    214.09658884 </i>
    <i name="ewald">  -5218.83436515 </i>
    <i name="hartreedc">   -333.02535737 </i>
    <i name="XCdc">  -3539.85011568 </i>
    <i name="pawpsdc">   7100.88161447 </i>
    <i name="pawaedc">  -3112.42095010 </i>
    <i name="eentropy">     -0.00000000 </i>
    <i name="bandstr">    447.64508903 </i>
    <i name="atom">   4763.39200965 </i>
    <i name="e_fr_energy">    321.88451369 </i>
    <i name="e_wo_entrp">    321.88451369 </i>
    <i name="e_0_energy">    321.88451369 </i>
   </energy>
  </scstep>
  <scstep>
   <time name="dav">   15.49   15.52</time>
   <time name="total">   15.49   15.52</time>
   <energy>
    <i name="e_fr_energy">   -253.38047849 </i>
    <i name="e_wo_entrp">   -253.38047849 </i>
    <i name="e_0_energy">   -253.38047849 </i>
   </energy>
  </scstep>
  <scstep>
   <time name="dav">   15.56   15.59</time>
   <time name="total">   15.56   15.59</time>
   <energy>
    <i name="e_fr_energy">   -296.45455058 </i>
    <i name="e_wo_entrp">   -296.45455058 </i>
    <i name="e_0_energy">   -296.45455058 </i>
   </energy>
  </scstep>
  <scstep>
   <time name="dav">   15.33   15.36</time>
   <time name="total">   15.33   15.36</time>
   <energy>
    <i name="e_fr_energy">   -297.34055469 </i>
    <i name="e_wo_entrp">   -297.34055469 </i>
    <i name="e_0_energy">   -297.34055469 </i>
   </energy>
  </scstep>
  <scstep>
   <time name="dav">   15.79   15.82</time>
   <time name="total">   16.20   16.22</time>
   <energy>
    <i name="e_fr_energy">   -297.36461751 </i>
    <i name="e_wo_entrp">   -297.36461751 </i>
    <i name="e_0_energy">   -297.36461751 </i>
   </energy>
  </scstep>
  <scstep>
   <time name="dav">   13.42   13.44</time>
   <time name="total">   14.60   14.63</time>
   <energy>
    <i name="e_fr_energy">   -280.23942399 </i>
    <i name="e_wo_entrp">   -280.23942399 </i>
    <i name="e_0_energy">   -280.23942399 </i>
   </energy>
  </scstep>
  <scstep>
   <time name="dav">   14.27   14.29</time>
   <time name="total">   15.46   15.49</time>
   <energy>
    <i name="e_fr_energy">   -277.76407591 </i>
    <i name="e_wo_entrp">   -277.76407584 </i>
    <i name="e_0_energy">   -277.76407588 </i>
   </energy>
  </scstep>
  <scstep>
   <time name="dav">   14.17   14.20</time>
   <time name="total">   15.36   15.39</time>
   <energy>
    <i name="e_fr_energy">   -277.76822921 </i>
    <i name="e_wo_entrp">   -277.76822921 </i>
    <i name="e_0_energy">   -277.76822921 </i>
   </energy>
  </scstep>
  <scstep>
   <time name="dav">   14.86   14.89</time>
   <time name="total">   16.06   16.09</time>
   <energy>
    <i name="e_fr_energy">   -277.76497775 </i>
    <i name="e_wo_entrp">   -277.76497775 </i>
    <i name="e_0_energy">   -277.76497775 </i>
   </energy>
  </scstep>
  <scstep>
   <time name="dav">   14.63   14.65</time>
   <time name="total">   15.82   15.85</time>
   <energy>
    <i name="e_fr_energy">   -277.76821730 </i>
    <i name="e_wo_entrp">   -277.76821730 </i>
    <i name="e_0_energy">   -277.76821730 </i>
   </energy>
  </scstep>
  <scstep>
   <time name="dav">   14.62   14.65</time>
   <time name="total">   15.81   15.84</time>
   <energy>
    <i name="e_fr_energy">   -277.76864573 </i>
    <i name="e_wo_entrp">   -277.76864573 </i>
    <i name="e_0_energy">   -277.76864573 </i>
   </energy>
  </scstep>
  <scstep>
   <time name="dav">   15.75   15.78</time>
   <time name="total">   16.93   16.96</time>
   <energy>
    <i name="e_fr_energy">   -277.76854756 </i>
    <i name="e_wo_entrp">   -277.76854756 </i>
    <i name="e_0_energy">   -277.76854756 </i>
   </energy>
  </scstep>
  <scstep>
   <time name="dav">   15.08   15.11</time>
   <time name="total">   16.26   16.29</time>
   <energy>
    <i name="e_fr_energy">   -277.76852142 </i>
    <i name="e_wo_entrp">   -277.76852142 </i>
    <i name="e_0_energy">   -277.76852142 </i>
   </energy>
  </scstep>
  <scstep>
   <time name="dav">   14.42   14.45</time>
   <time name="total">   15.60   15.63</time>
   <energy>
    <i name="e_fr_energy">   -277.76852803 </i>
    <i name="e_wo_entrp">   -277.76852803 </i>
    <i name="e_0_energy">   -277.76852803 </i>
   </energy>
  </scstep>
  <scstep>
   <time name="dav">   14.42   14.45</time>
   <time name="total">   15.61   15.64</time>
   <energy>
    <i name="e_fr_energy">   -277.76852756 </i>
    <i name="e_wo_entrp">   -277.76852756 </i>
    <i name="e_0_energy">   -277.76852756 </i>
   </energy>
  </scstep>
  <scstep>
   <time name="dav">   14.87   14.90</time>
   <time name="total">   16.06   16.09</time>
   <energy>
    <i name="e_fr_energy">   -277.76852781 </i>
    <i name="e_wo_entrp">   -277.76852781 </i>
    <i name="e_0_energy">   -277.76852781 </i>
   </energy>
  </scstep>
  <scstep>
   <time name="dav">   14.41   14.44</time>
   <time name="total">   15.60   15.63</time>
   <energy>
    <i name="e_fr_energy">   -277.76852800 </i>
    <i name="e_wo_entrp">   -277.76852800 </i>
    <i name="e_0_energy">   -277.76852800 </i>
   </energy>
  </scstep>
  <scstep>
   <time name="dav">   13.93   13.95</time>
   <time name="total">   15.12   15.15</time>
   <energy>
    <i name="e_fr_energy">   -277.76852798 </i>
    <i name="e_wo_entrp">   -277.76852798 </i>
    <i name="e_0_energy">   -277.76852798 </i>
   </energy>
  </scstep>
  <scstep>
   <time name="dav">   10.53   10.55</time>
   <time name="total">   11.71   11.73</time>
   <energy>
    <i name="e_fr_energy">   -277.76852801 </i>
    <i name="e_wo_entrp">   -277.76852801 </i>
    <i name="e_0_energy">   -277.76852801 </i>
   </energy>
  </scstep>
  <scstep>
   <time name="dav">    9.86    9.88</time>
   <time name="total">   11.06   11.08</time>
   <energy>
    <i name="e_fr_energy">   -277.76852804 </i>
    <i name="e_wo_entrp">   -277.76852804 </i>
    <i name="e_0_energy">   -277.76852804 </i>
   </energy>
  </scstep>
  <scstep>
   <time name="dav">    9.64    9.66</time>
   <time name="total">   10.83   10.85</time>
   <energy>
    <i name="e_fr_energy">   -277.76852802 </i>
    <i name="e_wo_entrp">   -277.76852802 </i>
    <i name="e_0_energy">   -277.76852802 </i>
   </energy>
  </scstep>
  <scstep>
   <time name="dav">    9.87    9.89</time>
   <time name="total">   10.64   10.66</time>
   <energy>
    <i name="alphaZ">    214.09658884 </i>
    <i name="ewald">  -5218.83436515 </i>
    <i name="hartreedc">   -486.12220051 </i>
    <i name="XCdc">  -3511.70766299 </i>
    <i name="pawpsdc">  17714.23105947 </i>
    <i name="pawaedc"> -13730.55283827 </i>
    <i name="eentropy">     -0.00000000 </i>
    <i name="bandstr">    -22.27111907 </i>
    <i name="atom">   4763.39200965 </i>
    <i name="e_fr_energy">   -277.76852802 </i>
    <i name="e_wo_entrp">   -277.76852802 </i>
    <i name="e_0_energy">   -277.76852802 </i>
   </energy>
  </scstep>
  <structure>
   <crystal>
    <varray name="basis" >
     <v>      12.74739769       0.00000000       0.00000000 </v>
     <v>       0.00000000      12.74739769       0.00000000 </v>
     <v>       0.00000000       0.00000000      12.74739769 </v>
    </varray>
    <i name="volume">   2071.40301882 </i>
    <varray name="rec_basis" >
     <v>       0.07844738       0.00000000       0.00000000 </v>
     <v>       0.00000000       0.07844738       0.00000000 </v>
     <v>       0.00000000       0.00000000       0.07844738 </v>
    </varray>
   </crystal>
   <varray name="positions" >
    <v>       0.00000000       0.00000000       0.00000000 </v>
    <v>       0.50000000       0.00000000       0.00000000 </v>
    <v>       0.00000000       0.50000000       0.00000000 </v>
    <v>       0.50000000       0.50000000       0.00000000 </v>
    <v>       0.00000000       0.00000000       0.50000000 </v>
    <v>       0.50000000       0.00000000       0.50000000 </v>
    <v>       0.00000000       0.50000000       0.50000000 </v>
    <v>       0.50000000       0.50000000       0.50000000 </v>
    <v>       0.25140293       0.25140293       0.00000000 </v>
    <v>       0.74859707       0.25140293       0.00000000 </v>
    <v>       0.25140293       0.74859707       0.00000000 </v>
    <v>       0.74859707       0.74859707       0.00000000 </v>
    <v>       0.25012668       0.25012668       0.50000000 </v>
    <v>       0.74987332       0.25012668       0.50000000 </v>
    <v>       0.25012668       0.74987332       0.50000000 </v>
    <v>       0.74987332       0.74987332       0.50000000 </v>
    <v>       0.25140293       0.00000000       0.25140293 </v>
    <v>       0.74859707       0.00000000       0.25140293 </v>
    <v>       0.25012668       0.50000000       0.25012668 </v>
    <v>       0.74987332       0.50000000       0.25012668 </v>
    <v>       0.25140293       0.00000000       0.74859707 </v>
    <v>       0.74859707       0.00000000       0.74859707 </v>
    <v>       0.25012668       0.50000000       0.74987332 </v>
    <v>       0.74987332       0.50000000       0.74987332 </v>
    <v>       0.00000000       0.25140293       0.25140293 </v>
    <v>       0.50000000       0.25012668       0.25012668 </v>
    <v>       0.00000000       0.74859707       0.25140293 </v>
    <v>       0.50000000       0.74987332       0.25012668 </v>
    <v>       0.00000000       0.25140293       0.74859707 </v>
    <v>       0.50000000       0.25012668       0.74987332 </v>
    <v>       0.00000000       0.74859707       0.74859707 </v>
    <v>       0.50000000       0.74987332       0.74987332 </v>
    <v>       0.12960836       0.12960836       0.12960836 </v>
    <v>       0.62499804       0.12507203       0.12507203 </v>
    <v>       0.12507203       0.62421357       0.12507203 </v>
    <v>       0.62455273       0.62455273       0.12469540 </v>
    <v>       0.12507203       0.12507203       0.62421357 </v>
    <v>       0.62455273       0.12469540       0.62455273 </v>
    <v>       0.12469540       0.62455273       0.62455273 </v>
    <v>       0.62508239       0.62508239       0.62508239 </v>
    <v>       0.37578643       0.12507203       0.12507203 </v>
    <v>       0.87039164       0.12960836       0.12960836 </v>
    <v>       0.37544727       0.62455273       0.12469540 </v>
    <v>       0.87492797       0.62421357       0.12507203 </v>
    <v>       0.37544727       0.12469540       0.62455273 </v>
    <v>       0.87492797       0.12507203       0.62421357 </v>
    <v>       0.37491761       0.62508239       0.62508239 </v>
    <v>       0.87530460       0.62455273       0.62455273 </v>
    <v>       0.12507203       0.37578643       0.12507203 </v>
    <v>       0.62455273       0.37544727       0.12469540 </v>
    <v>       0.12960836       0.87039164       0.12960836 </v>
    <v>       0.62421357       0.87492797       0.12507203 </v>
    <v>       0.12469540       0.37544727       0.62455273 </v>
    <v>       0.62508239       0.37491761       0.62508239 </v>
    <v>       0.12507203       0.87492797       0.62421357 </v>
    <v>       0.62455273       0.87530460       0.62455273 </v>
    <v>       0.37544727       0.37544727       0.12469540 </v>
    <v>       0.87492797       0.37578643       0.12507203 </v>
    <v>       0.37578643       0.87492797       0.12507203 </v>
    <v>       0.87039164       0.87039164       0.12960836 </v>
    <v>       0.37491761       0.37491761       0.62508239 </v>
    <v>       0.87530460       0.37544727       0.62455273 </v>
    <v>       0.37544727       0.87530460       0.62455273 </v>
    <v>       0.87492797       0.87492797       0.62421357 </v>
    <v>       0.12507203       0.12507203       0.37578643 </v>
    <v>       0.62455273       0.12469540       0.37544727 </v>
    <v>       0.12469540       0.62455273       0.37544727 </v>
    <v>       0.62508239       0.62508239       0.37491761 </v>
    <v>       0.12960836       0.12960836       0.87039164 </v>
    <v>       0.62421357       0.12507203       0.87492797 </v>
    <v>       0.12507203       0.62421357       0.87492797 </v>
    <v>       0.62455273       0.62455273       0.87530460 </v>
    <v>       0.37544727       0.12469540       0.37544727 </v>
    <v>       0.87492797       0.12507203       0.37578643 </v>
    <v>       0.37491761       0.62508239       0.37491761 </v>
    <v>       0.87530460       0.62455273       0.37544727 </v>
    <v>       0.37578643       0.12507203       0.87492797 </v>
    <v>       0.87039164       0.12960836       0.87039164 </v>
    <v>       0.37544727       0.62455273       0.87530460 </v>
    <v>       0.87492797       0.62421357       0.87492797 </v>
    <v>       0.12469540       0.37544727       0.37544727 </v>
    <v>       0.62508239       0.37491761       0.37491761 </v>
    <v>       0.12507203       0.87492797       0.37578643 </v>
    <v>       0.62455273       0.87530460       0.37544727 </v>
    <v>       0.12507203       0.37578643       0.87492797 </v>
    <v>       0.62455273       0.37544727       0.87530460 </v>
    <v>       0.12960836       0.87039164       0.87039164 </v>
    <v>       0.62421357       0.87492797       0.87492797 </v>
    <v>       0.37491761       0.37491761       0.37491761 </v>
    <v>       0.87530460       0.37544727       0.37544727 </v>
    <v>       0.37544727       0.87530460       0.37544727 </v>
    <v>       0.87492797       0.87492797       0.37578643 </v>
    <v>       0.37544727       0.37544727       0.87530460 </v>
    <v>       0.87492797       0.37578643       0.87492797 </v>
    <v>       0.37578643       0.87492797       0.87492797 </v>
    <v>       0.87039164       0.87039164       0.87039164 </v>
   </varray>
  </structure>
  <varray name="forces" >
   <v>      -0.00057545       0.00017561       0.00017559 </v>
   <v>       0.00642177       0.00362225       0.00362219 </v>
   <v>      -0.00058207      -0.00039076      -0.00018344 </v>
   <v>       0.00062660      -0.00009598      -0.00048391 </v>
   <v>      -0.00058201      -0.00018352      -0.00039071 </v>
   <v>       0.00062654      -0.00048393      -0.00009596 </v>
   <v>      -0.00020787      -0.00002864      -0.00002868 </v>
   <v>       0.00028781       0.00062209       0.00062207 </v>
   <v>       0.00562778       0.00658377      -0.00026039 </v>
   <v>      -0.00021847       0.00986815      -0.00333648 </v>
   <v>       0.00571170      -0.00672472       0.00018128 </v>
   <v>      -0.00577083      -0.00643190       0.00043097 </v>
   <v>      -0.00409211      -0.00362147       0.00038351 </v>
   <v>       0.00403886      -0.00389386       0.00009217 </v>
   <v>      -0.00370048       0.00345943       0.00000433 </v>
   <v>       0.00370013       0.00410788      -0.00062729 </v>
   <v>       0.00562768      -0.00026080       0.00658396 </v>
   <v>      -0.00021838      -0.00333649       0.00986787 </v>
   <v>      -0.00409206       0.00038348      -0.00362138 </v>
   <v>       0.00403881       0.00009216      -0.00389387 </v>
   <v>       0.00571167       0.00018128      -0.00672443 </v>
   <v>      -0.00577085       0.00043136      -0.00643203 </v>
   <v>      -0.00370040       0.00000435       0.00345937 </v>
   <v>       0.00370005      -0.00062725       0.00410783 </v>
   <v>      -0.00066121       0.00612297       0.00612312 </v>
   <v>       0.00645386      -0.00704695      -0.00704698 </v>
   <v>      -0.00055612      -0.00592397       0.00653744 </v>
   <v>       0.00063871       0.00353585      -0.00300550 </v>
   <v>      -0.00055611       0.00653763      -0.00592373 </v>
   <v>       0.00063874      -0.00300550       0.00353592 </v>
   <v>      -0.00017541      -0.00632807      -0.00632832 </v>
   <v>       0.00031345       0.00283482       0.00283477 </v>
   <v>      -0.01438007      -0.01486350      -0.01486342 </v>
   <v>      -0.04503666       0.00023206       0.00023194 </v>
   <v>       0.00058396      -0.00156782       0.00051703 </v>
   <v>      -0.00052257      -0.00046937      -0.00034256 </v>
   <v>       0.00058422       0.00051748      -0.00156830 </v>
   <v>      -0.00052256      -0.00034212      -0.00046983 </v>
   <v>      -0.00016493      -0.00046778      -0.00046820 </v>
   <v>      -0.00255358      -0.00088537      -0.00088579 </v>
   <v>       0.01190998       0.00052566       0.00052578 </v>
   <v>       0.02626558      -0.01469292      -0.01469284 </v>
   <v>       0.00048745      -0.00048000      -0.00034453 </v>
   <v>      -0.00052672      -0.00157137       0.00052330 </v>
   <v>       0.00048745      -0.00034495      -0.00047959 </v>
   <v>      -0.00052699       0.00052283      -0.00157093 </v>
   <v>       0.00162039      -0.00089352      -0.00089303 </v>
   <v>       0.00107794      -0.00047339      -0.00047294 </v>
   <v>       0.00080052       0.00157184       0.00018197 </v>
   <v>      -0.00308719       0.00042199       0.00102046 </v>
   <v>      -0.01459961       0.01486621      -0.01452558 </v>
   <v>      -0.00421366      -0.00053213      -0.00081753 </v>
   <v>      -0.00026581       0.00047547      -0.00038303 </v>
   <v>      -0.00149838       0.00088669      -0.00124466 </v>
   <v>       0.00060668      -0.00052393      -0.00165830 </v>
   <v>      -0.00107982       0.00034595      -0.00012149 </v>
   <v>       0.00146362      -0.00056281       0.00035942 </v>
   <v>       0.00046095       0.00262257       0.00123042 </v>
   <v>       0.00256315       0.00051424      -0.00017688 </v>
   <v>       0.01585756       0.01383674      -0.01556635 </v>
   <v>       0.00115508       0.00124123      -0.00102831 </v>
   <v>       0.00060344       0.00012902      -0.00061110 </v>
   <v>       0.00073883      -0.00000004      -0.00034692 </v>
   <v>      -0.00027119      -0.00017499      -0.00143293 </v>
   <v>       0.00080026       0.00018159       0.00157228 </v>
   <v>      -0.00308718       0.00102000       0.00042242 </v>
   <v>      -0.00026582      -0.00038350       0.00047592 </v>
   <v>      -0.00149840      -0.00124511       0.00088714 </v>
   <v>      -0.01459966      -0.01452561       0.01486624 </v>
   <v>      -0.00421367      -0.00081777      -0.00053193 </v>
   <v>       0.00060699      -0.00165875      -0.00052345 </v>
   <v>      -0.00107980      -0.00012191       0.00034634 </v>
   <v>       0.00146364       0.00035983      -0.00056321 </v>
   <v>       0.00046120       0.00123088       0.00262211 </v>
   <v>       0.00115512      -0.00102786       0.00124076 </v>
   <v>       0.00060344      -0.00061067       0.00012858 </v>
   <v>       0.00256314      -0.00017668       0.00051404 </v>
   <v>       0.01585759      -0.01556636       0.01383665 </v>
   <v>       0.00073879      -0.00034649      -0.00000048 </v>
   <v>      -0.00027148      -0.00143251      -0.00017539 </v>
   <v>      -0.00015468       0.00060878       0.00060836 </v>
   <v>      -0.00295713       0.00018221       0.00018177 </v>
   <v>       0.00071801      -0.00039931       0.00143240 </v>
   <v>      -0.00252327      -0.00035451       0.00114398 </v>
   <v>       0.00071774       0.00143285      -0.00039982 </v>
   <v>      -0.00252328       0.00114445      -0.00035497 </v>
   <v>      -0.01469095       0.01474302       0.01474300 </v>
   <v>      -0.00361245       0.00016764       0.00016752 </v>
   <v>       0.00293992       0.00041642       0.00041688 </v>
   <v>       0.00018473       0.00056785       0.00056831 </v>
   <v>       0.00030454       0.00044245       0.00038224 </v>
   <v>       0.00151536      -0.00100573       0.00202247 </v>
   <v>       0.00030451       0.00038180       0.00044289 </v>
   <v>       0.00151566       0.00202203      -0.00100535 </v>
   <v>       0.00361152      -0.00004866      -0.00004852 </v>
   <v>       0.01469423       0.01477637       0.01477627 </v>
  </varray>
  <varray name="stress" >
   <v>      -1.01736502       0.00077175       0.00077182 </v>
   <v>       0.00077185      -1.01948025      -0.00892345 </v>
   <v>       0.00077205      -0.00892356      -1.01948036 </v>
  </varray>
  <energy>
   <i name="e_fr_energy">   -277.76852802 </i>
   <i name="e_wo_entrp">   -277.76852802 </i>
   <i name="e_0_energy">     -0.00000000 </i>
  </energy>
  <time name="totalsc">  359.18  359.86</time>
  <eigenvalues>
   <array>
    <dimension dim="1">band</dimension>
    <dimension dim="2">kpoint</dimension>
    <dimension dim="3">spin</dimension>
    <field>eigene</field>
    <field>occ</field>
    <set>
     <set comment="spin 1">
      <set comment="kpoint 1">
       <r>   -5.4896    1.0000 </r>
       <r>   -4.7782    1.0000 </r>
       <r>   -4.7771    1.0000 </r>
       <r>   -4.7697    1.0000 </r>
       <r>   -4.7691    1.0000 </r>
       <r>   -4.7685    1.0000 </r>
       <r>   -4.7409    1.0000 </r>
       <r>   -4.2066    1.0000 </r>
       <r>   -4.2051    1.0000 </r>
       <r>   -4.2011    1.0000 </r>
       <r>   -4.2003    1.0000 </r>
       <r>   -4.2000    1.0000 </r>
       <r>   -4.1959    1.0000 </r>
       <r>   -4.1956    1.0000 </r>
       <r>   -4.1947    1.0000 </r>
       <r>   -4.1862    1.0000 </r>
       <r>   -4.1857    1.0000 </r>
       <r>   -4.1850    1.0000 </r>
       <r>   -4.1415    1.0000 </r>
       <r>   -4.0667    1.0000 </r>
       <r>   -4.0666    1.0000 </r>
       <r>   -4.0654    1.0000 </r>
       <r>   -4.0489    1.0000 </r>
       <r>   -3.5085    1.0000 </r>
       <r>   -3.5077    1.0000 </r>
       <r>   -3.4976    1.0000 </r>
       <r>   -3.4678    1.0000 </r>
       <r>   -3.4666    1.0000 </r>
       <r>   -3.4609    1.0000 </r>
       <r>   -3.4602    1.0000 </r>
       <r>   -3.4597    1.0000 </r>
       <r>   -3.3910    1.0000 </r>
       <r>   -1.1934    1.0000 </r>
       <r>   -1.1585    1.0000 </r>
       <r>   -1.1577    1.0000 </r>
       <r>   -1.1573    1.0000 </r>
       <r>   -0.8440    1.0000 </r>
       <r>   -0.8439    1.0000 </r>
       <r>   -0.8439    1.0000 </r>
       <r>   -0.0466    1.0000 </r>
       <r>   -0.0453    1.0000 </r>
       <r>   -0.0447    1.0000 </r>
       <r>   -0.0341    1.0000 </r>
       <r>   -0.0333    1.0000 </r>
       <r>   -0.0319    1.0000 </r>
       <r>   -0.0261    1.0000 </r>
       <r>   -0.0260    1.0000 </r>
       <r>   -0.0257    1.0000 </r>
       <r>   -0.0004    1.0000 </r>
       <r>   -0.0001    1.0000 </r>
       <r>    0.0004    1.0000 </r>
       <r>    0.0105    1.0000 </r>
       <r>    0.0108    1.0000 </r>
       <r>    0.0108    1.0000 </r>
       <r>    0.0114    1.0000 </r>
       <r>    0.0116    1.0000 </r>
       <r>    0.0140    1.0000 </r>
       <r>    0.0145    1.0000 </r>
       <r>    0.0146    1.0000 </r>
       <r>    0.0533    1.0000 </r>
       <r>    0.0539    1.0000 </r>
       <r>    0.0539    1.0000 </r>
       <r>    0.0685    1.0000 </r>
       <r>    0.7621    1.0000 </r>
       <r>    0.7624    1.0000 </r>
       <r>    0.7686    1.0000 </r>
       <r>    0.7833    1.0000 </r>
       <r>    0.7834    1.0000 </r>
       <r>    0.7841    1.0000 </r>
       <r>    0.8015    1.0000 </r>
       <r>    0.8017    1.0000 </r>
       <r>    0.8019    1.0000 </r>
       <r>    0.8022    1.0000 </r>
       <r>    0.8027    1.0000 </r>
       <r>    0.8034    1.0000 </r>
       <r>    0.9188    1.0000 </r>
       <r>    0.9350    1.0000 </r>
       <r>    0.9353    1.0000 </r>
       <r>    0.9355    1.0000 </r>
       <r>    0.9577    1.0000 </r>
       <r>    0.9578    1.0000 </r>
       <r>    1.1732    1.0000 </r>
       <r>    1.1736    1.0000 </r>
       <r>    1.1737    1.0000 </r>
       <r>    1.1739    1.0000 </r>
       <r>    1.1741    1.0000 </r>
       <r>    1.2244    1.0000 </r>
       <r>    1.6498    1.0000 </r>
       <r>    1.6500    1.0000 </r>
       <r>    1.6501    1.0000 </r>
       <r>    1.6527    1.0000 </r>
       <r>    1.6528    1.0000 </r>
       <r>    1.6530    1.0000 </r>
       <r>    2.3232    1.0000 </r>
       <r>    2.3239    1.0000 </r>
       <r>    2.3241    1.0000 </r>
       <r>    2.3308    1.0000 </r>
       <r>    2.3310    1.0000 </r>
       <r>    2.3311    1.0000 </r>
       <r>    2.3312    1.0000 </r>
       <r>    2.3317    1.0000 </r>
       <r>    2.3323    1.0000 </r>
       <r>    2.3812    1.0000 </r>
       <r>    2.3814    1.0000 </r>
       <r>    2.3816    1.0000 </r>
       <r>    2.7660    1.0000 </r>
       <r>    2.7667    1.0000 </r>
       <r>    2.7667    1.0000 </r>
       <r>    2.7790    1.0000 </r>
       <r>    2.7798    1.0000 </r>
       <r>    2.7803    1.0000 </r>
       <r>    2.7876    1.0000 </r>
       <r>    2.7948    1.0000 </r>
       <r>    2.7957    1.0000 </r>
       <r>    2.8222    1.0000 </r>
       <r>    2.8227    1.0000 </r>
       <r>    2.8230    1.0000 </r>
       <r>    2.8676    1.0000 </r>
       <r>    2.8682    1.0000 </r>
       <r>    2.8941    1.0000 </r>
       <r>    2.8949    1.0000 </r>
       <r>    2.8953    1.0000 </r>
       <r>    2.9788    1.0000 </r>
       <r>    2.9791    1.0000 </r>
       <r>    2.9796    1.0000 </r>
       <r>    3.6208    1.0000 </r>
       <r>    3.6211    1.0000 </r>
       <r>    3.6214    1.0000 </r>
       <r>    3.7502    0.0000 </r>
       <r>    3.7929    0.0000 </r>
       <r>    3.7938    0.0000 </r>
       <r>    3.9521    0.0000 </r>
       <r>    3.9522    0.0000 </r>
       <r>    3.9522    0.0000 </r>
       <r>    4.7267    0.0000 </r>
       <r>    4.7270    0.0000 </r>
       <r>    4.7591    0.0000 </r>
       <r>    4.7592    0.0000 </r>
       <r>    4.7594    0.0000 </r>
       <r>    4.7617    0.0000 </r>
       <r>    4.8105    0.0000 </r>
       <r>    4.8106    0.0000 </r>
       <r>    4.8116    0.0000 </r>
       <r>    4.8425    0.0000 </r>
       <r>    5.3087    0.0000 </r>
       <r>    5.3098    0.0000 </r>
       <r>    5.3102    0.0000 </r>
       <r>    5.3209    0.0000 </r>
       <r>    5.3213    0.0000 </r>
       <r>    5.3250    0.0000 </r>
       <r>    5.3250    0.0000 </r>
       <r>    5.3256    0.0000 </r>
       <r>    5.3336    0.0000 </r>
       <r>    5.3644    0.0000 </r>
       <r>    5.3647    0.0000 </r>
       <r>    5.3654    0.0000 </r>
       <r>    5.3721    0.0000 </r>
       <r>    5.3730    0.0000 </r>
       <r>    5.3733    0.0000 </r>
       <r>    5.3741    0.0000 </r>
       <r>    5.4335    0.0000 </r>
       <r>    5.4338    0.0000 </r>
       <r>    5.5272    0.0000 </r>
       <r>    6.0781    0.0000 </r>
       <r>    6.0783    0.0000 </r>
       <r>    6.0793    0.0000 </r>
       <r>    6.0995    0.0000 </r>
       <r>    6.1001    0.0000 </r>
       <r>    6.1006    0.0000 </r>
       <r>    6.1463    0.0000 </r>
       <r>    6.1464    0.0000 </r>
       <r>    6.1485    0.0000 </r>
       <r>    6.1488    0.0000 </r>
       <r>    6.1489    0.0000 </r>
       <r>    6.2470    0.0000 </r>
       <r>    6.2497    0.0000 </r>
       <r>    6.2566    0.0000 </r>
       <r>    6.2744    0.0000 </r>
      </set>
     </set>
    </set>
   </array>
  </eigenvalues>
  <separator name="orbital magnetization" >
   <v name="MAGDIPOLOUT">      0.00000000      0.00000000      0.00000000</v>
  </separator>
  <dos>
   <i name="efermi">      3.68140658 </i>
   <total>
    <array>
     <dimension dim="1">gridpoints</dimension>
     <dimension dim="2">spin</dimension>
     <field>energy</field>
     <field>total</field>
     <field>integrated</field>
     <set>
      <set comment="spin 1">
       <r>    -6.0778     0.0000     0.0000 </r>
       <r>    -6.0346     0.0000     0.0000 </r>
       <r>    -5.9915     0.0000     0.0000 </r>
       <r>    -5.9484     0.0000     0.0000 </r>
       <r>    -5.9052     0.0000     0.0000 </r>
       <r>    -5.8621     0.0000     0.0000 </r>
       <r>    -5.8190     0.0000     0.0000 </r>
       <r>    -5.7758     0.0000     0.0000 </r>
       <r>    -5.7327     0.0000     0.0000 </r>
       <r>    -5.6896     0.0000     0.0000 </r>
       <r>    -5.6464     0.0000     0.0000 </r>
       <r>    -5.6033     0.0000     0.0000 </r>
       <r>    -5.5601     0.0000     0.0000 </r>
       <r>    -5.5170     0.0024     0.0001 </r>
       <r>    -5.4739    45.7490     1.9735 </r>
       <r>    -5.4307     0.6153     2.0000 </r>
       <r>    -5.3876     0.0000     2.0000 </r>
       <r>    -5.3445     0.0000     2.0000 </r>
       <r>    -5.3013     0.0000     2.0000 </r>
       <r>    -5.2582     0.0000     2.0000 </r>
       <r>    -5.2151     0.0000     2.0000 </r>
       <r>    -5.1719     0.0000     2.0000 </r>
       <r>    -5.1288     0.0000     2.0000 </r>
       <r>    -5.0857     0.0000     2.0000 </r>
       <r>    -5.0425     0.0000     2.0000 </r>
       <r>    -4.9994     0.0000     2.0000 </r>
       <r>    -4.9563     0.0000     2.0000 </r>
       <r>    -4.9131     0.0000     2.0000 </r>
       <r>    -4.8700     0.0000     2.0000 </r>
       <r>    -4.8269     0.0000     2.0000 </r>
       <r>    -4.7837    20.9871     2.9053 </r>
       <r>    -4.7406   234.8147    13.0339 </r>
       <r>    -4.6975    22.3981    14.0000 </r>
       <r>    -4.6543     0.0000    14.0000 </r>
       <r>    -4.6112     0.0000    14.0000 </r>
       <r>    -4.5681     0.0000    14.0000 </r>
       <r>    -4.5249     0.0000    14.0000 </r>
       <r>    -4.4818     0.0000    14.0000 </r>
       <r>    -4.4387     0.0000    14.0000 </r>
       <r>    -4.3955     0.0000    14.0000 </r>
       <r>    -4.3524     0.0000    14.0000 </r>
       <r>    -4.3092     0.0000    14.0000 </r>
       <r>    -4.2661     0.0000    14.0000 </r>
       <r>    -4.2230     0.8458    14.0365 </r>
       <r>    -4.1798   478.1360    34.6606 </r>
       <r>    -4.1367    65.7978    37.4988 </r>
       <r>    -4.0936    11.6284    38.0003 </r>
       <r>    -4.0504   156.5835    44.7545 </r>
       <r>    -4.0073    28.8751    46.0000 </r>
       <r>    -3.9642     0.0000    46.0000 </r>
       <r>    -3.9210     0.0000    46.0000 </r>
       <r>    -3.8779     0.0000    46.0000 </r>
       <r>    -3.8348     0.0000    46.0000 </r>
       <r>    -3.7916     0.0000    46.0000 </r>
       <r>    -3.7485     0.0000    46.0000 </r>
       <r>    -3.7054     0.0000    46.0000 </r>
       <r>    -3.6622     0.0000    46.0000 </r>
       <r>    -3.6191     0.0000    46.0000 </r>
       <r>    -3.5760     0.0000    46.0000 </r>
       <r>    -3.5328     0.0222    46.0010 </r>
       <r>    -3.4897   132.5756    51.7195 </r>
       <r>    -3.4466   234.4870    61.8340 </r>
       <r>    -3.4034     5.6719    62.0787 </r>
       <r>    -3.3603    44.5429    64.0000 </r>
       <r>    -3.3172     0.0003    64.0000 </r>
       <r>    -3.2740     0.0000    64.0000 </r>
       <r>    -3.2309     0.0000    64.0000 </r>
       <r>    -3.1878     0.0000    64.0000 </r>
       <r>    -3.1446     0.0000    64.0000 </r>
       <r>    -3.1015     0.0000    64.0000 </r>
       <r>    -3.0584     0.0000    64.0000 </r>
       <r>    -3.0152     0.0000    64.0000 </r>
       <r>    -2.9721     0.0000    64.0000 </r>
       <r>    -2.9289     0.0000    64.0000 </r>
       <r>    -2.8858     0.0000    64.0000 </r>
       <r>    -2.8427     0.0000    64.0000 </r>
       <r>    -2.7995     0.0000    64.0000 </r>
       <r>    -2.7564     0.0000    64.0000 </r>
       <r>    -2.7133     0.0000    64.0000 </r>
       <r>    -2.6701     0.0000    64.0000 </r>
       <r>    -2.6270     0.0000    64.0000 </r>
       <r>    -2.5839     0.0000    64.0000 </r>
       <r>    -2.5407     0.0000    64.0000 </r>
       <r>    -2.4976     0.0000    64.0000 </r>
       <r>    -2.4545     0.0000    64.0000 </r>
       <r>    -2.4113     0.0000    64.0000 </r>
       <r>    -2.3682     0.0000    64.0000 </r>
       <r>    -2.3251     0.0000    64.0000 </r>
       <r>    -2.2819     0.0000    64.0000 </r>
       <r>    -2.2388     0.0000    64.0000 </r>
       <r>    -2.1957     0.0000    64.0000 </r>
       <r>    -2.1525     0.0000    64.0000 </r>
       <r>    -2.1094     0.0000    64.0000 </r>
       <r>    -2.0663     0.0000    64.0000 </r>
       <r>    -2.0231     0.0000    64.0000 </r>
       <r>    -1.9800     0.0000    64.0000 </r>
       <r>    -1.9369     0.0000    64.0000 </r>
       <r>    -1.8937     0.0000    64.0000 </r>
       <r>    -1.8506     0.0000    64.0000 </r>
       <r>    -1.8075     0.0000    64.0000 </r>
       <r>    -1.7643     0.0000    64.0000 </r>
       <r>    -1.7212     0.0000    64.0000 </r>
       <r>    -1.6780     0.0000    64.0000 </r>
       <r>    -1.6349     0.0000    64.0000 </r>
       <r>    -1.5918     0.0000    64.0000 </r>
       <r>    -1.5486     0.0000    64.0000 </r>
       <r>    -1.5055     0.0000    64.0000 </r>
       <r>    -1.4624     0.0000    64.0000 </r>
       <r>    -1.4192     0.0000    64.0000 </r>
       <r>    -1.3761     0.0000    64.0000 </r>
       <r>    -1.3330     0.0000    64.0000 </r>
       <r>    -1.2898     0.0000    64.0000 </r>
       <r>    -1.2467     0.0000    64.0000 </r>
       <r>    -1.2036     3.4968    64.1508 </r>
       <r>    -1.1604    92.2742    68.1310 </r>
       <r>    -1.1173    89.6957    72.0000 </r>
       <r>    -1.0742     0.0000    72.0000 </r>
       <r>    -1.0310     0.0000    72.0000 </r>
       <r>    -0.9879     0.0000    72.0000 </r>
       <r>    -0.9448     0.0000    72.0000 </r>
       <r>    -0.9016     0.0000    72.0000 </r>
       <r>    -0.8585     2.7606    72.1191 </r>
       <r>    -0.8154   136.3357    77.9998 </r>
       <r>    -0.7722     0.0037    78.0000 </r>
       <r>    -0.7291     0.0000    78.0000 </r>
       <r>    -0.6860     0.0000    78.0000 </r>
       <r>    -0.6428     0.0000    78.0000 </r>
       <r>    -0.5997     0.0000    78.0000 </r>
       <r>    -0.5566     0.0000    78.0000 </r>
       <r>    -0.5134     0.0000    78.0000 </r>
       <r>    -0.4703     0.0000    78.0000 </r>
       <r>    -0.4271     0.0000    78.0000 </r>
       <r>    -0.3840     0.0000    78.0000 </r>
       <r>    -0.3409     0.0000    78.0000 </r>
       <r>    -0.2977     0.0000    78.0000 </r>
       <r>    -0.2546     0.0000    78.0000 </r>
       <r>    -0.2115     0.0000    78.0000 </r>
       <r>    -0.1683     0.0000    78.0000 </r>
       <r>    -0.1252     0.0000    78.0000 </r>
       <r>    -0.0821     0.0000    78.0000 </r>
       <r>    -0.0389   147.7223    84.3719 </r>
       <r>     0.0042   419.7099   102.4759 </r>
       <r>     0.0473   385.4418   119.1017 </r>
       <r>     0.0905   159.8810   125.9981 </r>
       <r>     0.1336     0.0448   126.0000 </r>
       <r>     0.1767     0.0000   126.0000 </r>
       <r>     0.2199     0.0000   126.0000 </r>
       <r>     0.2630     0.0000   126.0000 </r>
       <r>     0.3061     0.0000   126.0000 </r>
       <r>     0.3493     0.0000   126.0000 </r>
       <r>     0.3924     0.0000   126.0000 </r>
       <r>     0.4355     0.0000   126.0000 </r>
       <r>     0.4787     0.0000   126.0000 </r>
       <r>     0.5218     0.0000   126.0000 </r>
       <r>     0.5649     0.0000   126.0000 </r>
       <r>     0.6081     0.0000   126.0000 </r>
       <r>     0.6512     0.0000   126.0000 </r>
       <r>     0.6943     0.0000   126.0000 </r>
       <r>     0.7375     0.0220   126.0009 </r>
       <r>     0.7806   183.9243   133.9344 </r>
       <r>     0.8237   372.1135   149.9853 </r>
       <r>     0.8669     0.3401   150.0000 </r>
       <r>     0.9100     4.9801   150.2148 </r>
       <r>     0.9532   203.5707   158.9957 </r>
       <r>     0.9963    69.6492   162.0000 </r>
       <r>     1.0394     0.0000   162.0000 </r>
       <r>     1.0826     0.0000   162.0000 </r>
       <r>     1.1257     0.0000   162.0000 </r>
       <r>     1.1688    56.6843   164.4450 </r>
       <r>     1.2120   176.9939   172.0796 </r>
       <r>     1.2551    44.5214   174.0000 </r>
       <r>     1.2982     0.0003   174.0000 </r>
       <r>     1.3414     0.0000   174.0000 </r>
       <r>     1.3845     0.0000   174.0000 </r>
       <r>     1.4276     0.0000   174.0000 </r>
       <r>     1.4708     0.0000   174.0000 </r>
       <r>     1.5139     0.0000   174.0000 </r>
       <r>     1.5570     0.0000   174.0000 </r>
       <r>     1.6002     0.0000   174.0000 </r>
       <r>     1.6433    36.5914   175.5784 </r>
       <r>     1.6864   241.6084   186.0000 </r>
       <r>     1.7296     0.0002   186.0000 </r>
       <r>     1.7727     0.0000   186.0000 </r>
       <r>     1.8158     0.0000   186.0000 </r>
       <r>     1.8590     0.0000   186.0000 </r>
       <r>     1.9021     0.0000   186.0000 </r>
       <r>     1.9452     0.0000   186.0000 </r>
       <r>     1.9884     0.0000   186.0000 </r>
       <r>     2.0315     0.0000   186.0000 </r>
       <r>     2.0746     0.0000   186.0000 </r>
       <r>     2.1178     0.0000   186.0000 </r>
       <r>     2.1609     0.0000   186.0000 </r>
       <r>     2.2041     0.0000   186.0000 </r>
       <r>     2.2472     0.0000   186.0000 </r>
       <r>     2.2903     0.0002   186.0000 </r>
       <r>     2.3335   298.9411   198.8947 </r>
       <r>     2.3766   152.9553   205.4923 </r>
       <r>     2.4197   104.5033   210.0000 </r>
       <r>     2.4629     0.0000   210.0000 </r>
       <r>     2.5060     0.0000   210.0000 </r>
       <r>     2.5491     0.0000   210.0000 </r>
       <r>     2.5923     0.0000   210.0000 </r>
       <r>     2.6354     0.0000   210.0000 </r>
       <r>     2.6785     0.0000   210.0000 </r>
       <r>     2.7217     0.0000   210.0000 </r>
       <r>     2.7648    59.1523   212.5515 </r>
       <r>     2.8079   357.2756   227.9624 </r>
       <r>     2.8511   140.7667   234.0343 </r>
       <r>     2.8942   157.0203   240.8073 </r>
       <r>     2.9373    74.0183   244.0000 </r>
       <r>     2.9805    79.6091   247.4339 </r>
       <r>     3.0236    59.4908   250.0000 </r>
       <r>     3.0667     0.0000   250.0000 </r>
       <r>     3.1099     0.0000   250.0000 </r>
       <r>     3.1530     0.0000   250.0000 </r>
       <r>     3.1961     0.0000   250.0000 </r>
       <r>     3.2393     0.0000   250.0000 </r>
       <r>     3.2824     0.0000   250.0000 </r>
       <r>     3.3255     0.0000   250.0000 </r>
       <r>     3.3687     0.0000   250.0000 </r>
       <r>     3.4118     0.0000   250.0000 </r>
       <r>     3.4550     0.0000   250.0000 </r>
       <r>     3.4981     0.0000   250.0000 </r>
       <r>     3.5412     0.0000   250.0000 </r>
       <r>     3.5844     0.0000   250.0000 </r>
       <r>     3.6275   113.5865   254.8995 </r>
       <r>     3.6706    25.5135   256.0000 </r>
       <r>     3.7138     0.0000   256.0000 </r>
       <r>     3.7569    38.3946   257.6561 </r>
       <r>     3.8000    84.6806   261.3088 </r>
       <r>     3.8432    16.0248   262.0000 </r>
       <r>     3.8863     0.0000   262.0000 </r>
       <r>     3.9294     0.0907   262.0039 </r>
       <r>     3.9726   138.7371   267.9883 </r>
       <r>     4.0157     0.2722   268.0000 </r>
       <r>     4.0588     0.0000   268.0000 </r>
       <r>     4.1020     0.0000   268.0000 </r>
       <r>     4.1451     0.0000   268.0000 </r>
       <r>     4.1882     0.0000   268.0000 </r>
       <r>     4.2314     0.0000   268.0000 </r>
       <r>     4.2745     0.0000   268.0000 </r>
       <r>     4.3176     0.0000   268.0000 </r>
       <r>     4.3608     0.0000   268.0000 </r>
       <r>     4.4039     0.0000   268.0000 </r>
       <r>     4.4470     0.0000   268.0000 </r>
       <r>     4.4902     0.0000   268.0000 </r>
       <r>     4.5333     0.0000   268.0000 </r>
       <r>     4.5764     0.0000   268.0000 </r>
       <r>     4.6196     0.0000   268.0000 </r>
       <r>     4.6627     0.0000   268.0000 </r>
       <r>     4.7058     0.1400   268.0060 </r>
       <r>     4.7490   104.3821   272.5085 </r>
       <r>     4.7921   174.2316   280.0239 </r>
       <r>     4.8353   145.6616   286.3069 </r>
       <r>     4.8784    39.2513   288.0000 </r>
       <r>     4.9215     0.0000   288.0000 </r>
       <r>     4.9647     0.0000   288.0000 </r>
       <r>     5.0078     0.0000   288.0000 </r>
       <r>     5.0509     0.0000   288.0000 </r>
       <r>     5.0941     0.0000   288.0000 </r>
       <r>     5.1372     0.0000   288.0000 </r>
       <r>     5.1803     0.0000   288.0000 </r>
       <r>     5.2235     0.0000   288.0000 </r>
       <r>     5.2666     0.0000   288.0000 </r>
       <r>     5.3097    77.7960   291.3557 </r>
       <r>     5.3529   346.0731   306.2834 </r>
       <r>     5.3960   317.8784   319.9949 </r>
       <r>     5.4391    72.6869   323.1302 </r>
       <r>     5.4823    20.1654   324.0000 </r>
       <r>     5.5254    18.5337   324.7994 </r>
       <r>     5.5685    27.8330   326.0000 </r>
       <r>     5.6117     0.0000   326.0000 </r>
       <r>     5.6548     0.0000   326.0000 </r>
       <r>     5.6979     0.0000   326.0000 </r>
       <r>     5.7411     0.0000   326.0000 </r>
       <r>     5.7842     0.0000   326.0000 </r>
       <r>     5.8273     0.0000   326.0000 </r>
       <r>     5.8705     0.0000   326.0000 </r>
       <r>     5.9136     0.0000   326.0000 </r>
       <r>     5.9567     0.0000   326.0000 </r>
       <r>     5.9999     0.0000   326.0000 </r>
       <r>     6.0430     0.0000   326.0000 </r>
       <r>     6.0862   122.7499   331.2947 </r>
       <r>     6.1293   156.5920   338.0493 </r>
       <r>     6.1724   230.6242   347.9971 </r>
       <r>     6.2156     0.0674   348.0000 </r>
       <r>     6.2587   114.9018   352.9562 </r>
       <r>     6.3018    70.5622   355.9999 </r>
       <r>     6.3450     0.0024   356.0000 </r>
       <r>     6.3881     0.0000   356.0000 </r>
       <r>     6.4312     0.0000   356.0000 </r>
       <r>     6.4744     0.0000   356.0000 </r>
       <r>     6.5175     0.0000   356.0000 </r>
       <r>     6.5606     0.0000   356.0000 </r>
       <r>     6.6038     0.0000   356.0000 </r>
       <r>     6.6469     0.0000   356.0000 </r>
       <r>     6.6900     0.0000   356.0000 </r>
       <r>     6.7332     0.0000   356.0000 </r>
       <r>     6.7763     0.0000   356.0000 </r>
       <r>     6.8194     0.0000   356.0000 </r>
       <r>     6.8626     0.0000   356.0000 </r>
      </set>
     </set>
    </array>
   </total>
  </dos>
 </calculation>
 <structure name="finalpos" >
  <crystal>
   <varray name="basis" >
    <v>      12.74739769       0.00000000       0.00000000 </v>
    <v>       0.00000000      12.74739769       0.00000000 </v>
    <v>       0.00000000       0.00000000      12.74739769 </v>
   </varray>
   <i name="volume">   2071.40301882 </i>
   <varray name="rec_basis" >
    <v>       0.07844738       0.00000000       0.00000000 </v>
    <v>       0.00000000       0.07844738       0.00000000 </v>
    <v>       0.00000000       0.00000000       0.07844738 </v>
   </varray>
  </crystal>
  <varray name="positions" >
   <v>       0.00000000       0.00000000       0.00000000 </v>
   <v>       0.50000000       0.00000000       0.00000000 </v>
   <v>       0.00000000       0.50000000       0.00000000 </v>
   <v>       0.50000000       0.50000000       0.00000000 </v>
   <v>       0.00000000       0.00000000       0.50000000 </v>
   <v>       0.50000000       0.00000000       0.50000000 </v>
   <v>       0.00000000       0.50000000       0.50000000 </v>
   <v>       0.50000000       0.50000000       0.50000000 </v>
   <v>       0.25140293       0.25140293       0.00000000 </v>
   <v>       0.74859707       0.25140293       0.00000000 </v>
   <v>       0.25140293       0.74859707       0.00000000 </v>
   <v>       0.74859707       0.74859707       0.00000000 </v>
   <v>       0.25012668       0.25012668       0.50000000 </v>
   <v>       0.74987332       0.25012668       0.50000000 </v>
   <v>       0.25012668       0.74987332       0.50000000 </v>
   <v>       0.74987332       0.74987332       0.50000000 </v>
   <v>       0.25140293       0.00000000       0.25140293 </v>
   <v>       0.74859707       0.00000000       0.25140293 </v>
   <v>       0.25012668       0.50000000       0.25012668 </v>
   <v>       0.74987332       0.50000000       0.25012668 </v>
   <v>       0.25140293       0.00000000       0.74859707 </v>
   <v>       0.74859707       0.00000000       0.74859707 </v>
   <v>       0.25012668       0.50000000       0.74987332 </v>
   <v>       0.74987332       0.50000000       0.74987332 </v>
   <v>       0.00000000       0.25140293       0.25140293 </v>
   <v>       0.50000000       0.25012668       0.25012668 </v>
   <v>       0.00000000       0.74859707       0.25140293 </v>
   <v>       0.50000000       0.74987332       0.25012668 </v>
   <v>       0.00000000       0.25140293       0.74859707 </v>
   <v>       0.50000000       0.25012668       0.74987332 </v>
   <v>       0.00000000       0.74859707       0.74859707 </v>
   <v>       0.50000000       0.74987332       0.74987332 </v>
   <v>       0.12960836       0.12960836       0.12960836 </v>
   <v>       0.62499804       0.12507203       0.12507203 </v>
   <v>       0.12507203       0.62421357       0.12507203 </v>
   <v>       0.62455273       0.62455273       0.12469540 </v>
   <v>       0.12507203       0.12507203       0.62421357 </v>
   <v>       0.62455273       0.12469540       0.62455273 </v>
   <v>       0.12469540       0.62455273       0.62455273 </v>
   <v>       0.62508239       0.62508239       0.62508239 </v>
   <v>       0.37578643       0.12507203       0.12507203 </v>
   <v>       0.87039164       0.12960836       0.12960836 </v>
   <v>       0.37544727       0.62455273       0.12469540 </v>
   <v>       0.87492797       0.62421357       0.12507203 </v>
   <v>       0.37544727       0.12469540       0.62455273 </v>
   <v>       0.87492797       0.12507203       0.62421357 </v>
   <v>       0.37491761       0.62508239       0.62508239 </v>
   <v>       0.87530460       0.62455273       0.62455273 </v>
   <v>       0.12507203       0.37578643       0.12507203 </v>
   <v>       0.62455273       0.37544727       0.12469540 </v>
   <v>       0.12960836       0.87039164       0.12960836 </v>
   <v>       0.62421357       0.87492797       0.12507203 </v>
   <v>       0.12469540       0.37544727       0.62455273 </v>
   <v>       0.62508239       0.37491761       0.62508239 </v>
   <v>       0.12507203       0.87492797       0.62421357 </v>
   <v>       0.62455273       0.87530460       0.62455273 </v>
   <v>       0.37544727       0.37544727       0.12469540 </v>
   <v>       0.87492797       0.37578643       0.12507203 </v>
   <v>       0.37578643       0.87492797       0.12507203 </v>
   <v>       0.87039164       0.87039164       0.12960836 </v>
   <v>       0.37491761       0.37491761       0.62508239 </v>
   <v>       0.87530460       0.37544727       0.62455273 </v>
   <v>       0.37544727       0.87530460       0.62455273 </v>
   <v>       0.87492797       0.87492797       0.62421357 </v>
   <v>       0.12507203       0.12507203       0.37578643 </v>
   <v>       0.62455273       0.12469540       0.37544727 </v>
   <v>       0.12469540       0.62455273       0.37544727 </v>
   <v>       0.62508239       0.62508239       0.37491761 </v>
   <v>       0.12960836       0.12960836       0.87039164 </v>
   <v>       0.62421357       0.12507203       0.87492797 </v>
   <v>       0.12507203       0.62421357       0.87492797 </v>
   <v>       0.62455273       0.62455273       0.87530460 </v>
   <v>       0.37544727       0.12469540       0.37544727 </v>
   <v>       0.87492797       0.12507203       0.37578643 </v>
   <v>       0.37491761       0.62508239       0.37491761 </v>
   <v>       0.87530460       0.62455273       0.37544727 </v>
   <v>       0.37578643       0.12507203       0.87492797 </v>
   <v>       0.87039164       0.12960836       0.87039164 </v>
   <v>       0.37544727       0.62455273       0.87530460 </v>
   <v>       0.87492797       0.62421357       0.87492797 </v>
   <v>       0.12469540       0.37544727       0.37544727 </v>
   <v>       0.62508239       0.37491761       0.37491761 </v>
   <v>       0.12507203       0.87492797       0.37578643 </v>
   <v>       0.62455273       0.87530460       0.37544727 </v>
   <v>       0.12507203       0.37578643       0.87492797 </v>
   <v>       0.62455273       0.37544727       0.87530460 </v>
   <v>       0.12960836       0.87039164       0.87039164 </v>
   <v>       0.62421357       0.87492797       0.87492797 </v>
   <v>       0.37491761       0.37491761       0.37491761 </v>
   <v>       0.87530460       0.37544727       0.37544727 </v>
   <v>       0.37544727       0.87530460       0.37544727 </v>
   <v>       0.87492797       0.87492797       0.37578643 </v>
   <v>       0.37544727       0.37544727       0.87530460 </v>
   <v>       0.87492797       0.37578643       0.87492797 </v>
   <v>       0.37578643       0.87492797       0.87492797 </v>
   <v>       0.87039164       0.87039164       0.87039164 </v>
  </varray>
 </structure>
</modeling>
