14.399652
2.43533967 0 0 0 2.43533967 0 0 0 2.43533967
1.086875 0 0 0 1.086875 0 0 0 1.086875
-1.086875 0 0 0 -1.086875 0 0 0 -1.086875
