  96  96   0   0
  0.2139429E+02  0.1271129E-08  0.1271129E-08  0.1271129E-08  0.5000000E-15
  1.000000000000000E-004
  CAR 
 unknown system                          
      6.87276984     -6.06488845  301      3.69226217      1.00000000
     -6.065  0.0000E+00  0.0000E+00
     -6.022  0.0000E+00  0.0000E+00
     -5.979  0.0000E+00  0.0000E+00
     -5.936  0.0000E+00  0.0000E+00
     -5.892  0.0000E+00  0.0000E+00
     -5.849  0.0000E+00  0.0000E+00
     -5.806  0.0000E+00  0.0000E+00
     -5.763  0.0000E+00  0.0000E+00
     -5.720  0.0000E+00  0.0000E+00
     -5.677  0.0000E+00  0.0000E+00
     -5.634  0.0000E+00  0.0000E+00
     -5.591  0.0000E+00  0.0000E+00
     -5.547  0.0000E+00  0.0000E+00
     -5.504  0.2411E-02  0.1040E-03
     -5.461  0.4576E+02  0.1973E+01
     -5.418  0.6161E+00  0.2000E+01
     -5.375  0.0000E+00  0.2000E+01
     -5.332  0.0000E+00  0.2000E+01
     -5.289  0.0000E+00  0.2000E+01
     -5.246  0.0000E+00  0.2000E+01
     -5.202  0.0000E+00  0.2000E+01
     -5.159  0.0000E+00  0.2000E+01
     -5.116  0.0000E+00  0.2000E+01
     -5.073  0.0000E+00  0.2000E+01
     -5.030  0.0000E+00  0.2000E+01
     -4.987  0.0000E+00  0.2000E+01
     -4.944  0.0000E+00  0.2000E+01
     -4.900  0.0000E+00  0.2000E+01
     -4.857  0.0000E+00  0.2000E+01
     -4.814  0.0000E+00  0.2000E+01
     -4.771  0.4910E+00  0.2021E+01
     -4.728  0.2775E+03  0.1399E+02
     -4.685  0.2231E+00  0.1400E+02
     -4.642  0.0000E+00  0.1400E+02
     -4.599  0.0000E+00  0.1400E+02
     -4.555  0.0000E+00  0.1400E+02
     -4.512  0.0000E+00  0.1400E+02
     -4.469  0.0000E+00  0.1400E+02
     -4.426  0.0000E+00  0.1400E+02
     -4.383  0.0000E+00  0.1400E+02
     -4.340  0.0000E+00  0.1400E+02
     -4.297  0.0000E+00  0.1400E+02
     -4.254  0.0000E+00  0.1400E+02
     -4.210  0.7276E-05  0.1400E+02
     -4.167  0.3797E+03  0.3037E+02
     -4.124  0.1768E+03  0.3800E+02
     -4.081  0.1837E-05  0.3800E+02
     -4.038  0.1259E+03  0.4343E+02
     -3.995  0.5959E+02  0.4600E+02
     -3.952  0.0000E+00  0.4600E+02
     -3.909  0.0000E+00  0.4600E+02
     -3.865  0.0000E+00  0.4600E+02
     -3.822  0.0000E+00  0.4600E+02
     -3.779  0.0000E+00  0.4600E+02
     -3.736  0.0000E+00  0.4600E+02
     -3.693  0.0000E+00  0.4600E+02
     -3.650  0.0000E+00  0.4600E+02
     -3.607  0.0000E+00  0.4600E+02
     -3.564  0.0000E+00  0.4600E+02
     -3.520  0.2070E-06  0.4600E+02
     -3.477  0.7807E+02  0.4937E+02
     -3.434  0.1272E+03  0.5485E+02
     -3.391  0.2121E+03  0.6400E+02
     -3.348  0.0000E+00  0.6400E+02
     -3.305  0.0000E+00  0.6400E+02
     -3.262  0.0000E+00  0.6400E+02
     -3.219  0.0000E+00  0.6400E+02
     -3.175  0.0000E+00  0.6400E+02
     -3.132  0.0000E+00  0.6400E+02
     -3.089  0.0000E+00  0.6400E+02
     -3.046  0.0000E+00  0.6400E+02
     -3.003  0.0000E+00  0.6400E+02
     -2.960  0.0000E+00  0.6400E+02
     -2.917  0.0000E+00  0.6400E+02
     -2.874  0.0000E+00  0.6400E+02
     -2.830  0.0000E+00  0.6400E+02
     -2.787  0.0000E+00  0.6400E+02
     -2.744  0.0000E+00  0.6400E+02
     -2.701  0.0000E+00  0.6400E+02
     -2.658  0.0000E+00  0.6400E+02
     -2.615  0.0000E+00  0.6400E+02
     -2.572  0.0000E+00  0.6400E+02
     -2.529  0.0000E+00  0.6400E+02
     -2.485  0.0000E+00  0.6400E+02
     -2.442  0.0000E+00  0.6400E+02
     -2.399  0.0000E+00  0.6400E+02
     -2.356  0.0000E+00  0.6400E+02
     -2.313  0.0000E+00  0.6400E+02
     -2.270  0.0000E+00  0.6400E+02
     -2.227  0.0000E+00  0.6400E+02
     -2.184  0.0000E+00  0.6400E+02
     -2.140  0.0000E+00  0.6400E+02
     -2.097  0.0000E+00  0.6400E+02
     -2.054  0.0000E+00  0.6400E+02
     -2.011  0.0000E+00  0.6400E+02
     -1.968  0.0000E+00  0.6400E+02
     -1.925  0.0000E+00  0.6400E+02
     -1.882  0.0000E+00  0.6400E+02
     -1.839  0.0000E+00  0.6400E+02
     -1.795  0.0000E+00  0.6400E+02
     -1.752  0.0000E+00  0.6400E+02
     -1.709  0.0000E+00  0.6400E+02
     -1.666  0.0000E+00  0.6400E+02
     -1.623  0.0000E+00  0.6400E+02
     -1.580  0.0000E+00  0.6400E+02
     -1.537  0.0000E+00  0.6400E+02
     -1.494  0.0000E+00  0.6400E+02
     -1.450  0.0000E+00  0.6400E+02
     -1.407  0.0000E+00  0.6400E+02
     -1.364  0.0000E+00  0.6400E+02
     -1.321  0.0000E+00  0.6400E+02
     -1.278  0.0000E+00  0.6400E+02
     -1.235  0.0000E+00  0.6400E+02
     -1.192  0.2330E-07  0.6400E+02
     -1.149  0.7495E+02  0.6723E+02
     -1.105  0.1106E+03  0.7200E+02
     -1.062  0.0000E+00  0.7200E+02
     -1.019  0.0000E+00  0.7200E+02
     -0.976  0.0000E+00  0.7200E+02
     -0.933  0.0000E+00  0.7200E+02
     -0.890  0.0000E+00  0.7200E+02
     -0.847  0.1048E-01  0.7200E+02
     -0.804  0.1377E+03  0.7794E+02
     -0.760  0.1457E+01  0.7800E+02
     -0.717  0.0000E+00  0.7800E+02
     -0.674  0.0000E+00  0.7800E+02
     -0.631  0.0000E+00  0.7800E+02
     -0.588  0.0000E+00  0.7800E+02
     -0.545  0.0000E+00  0.7800E+02
     -0.502  0.0000E+00  0.7800E+02
     -0.459  0.0000E+00  0.7800E+02
     -0.415  0.0000E+00  0.7800E+02
     -0.372  0.0000E+00  0.7800E+02
     -0.329  0.0000E+00  0.7800E+02
     -0.286  0.0000E+00  0.7800E+02
     -0.243  0.0000E+00  0.7800E+02
     -0.200  0.0000E+00  0.7800E+02
     -0.157  0.0000E+00  0.7800E+02
     -0.114  0.0000E+00  0.7800E+02
     -0.070  0.0000E+00  0.7800E+02
     -0.027  0.1451E-05  0.7800E+02
      0.016  0.3299E+03  0.9223E+02
      0.059  0.7825E+03  0.1260E+03
      0.102  0.6198E+00  0.1260E+03
      0.145  0.0000E+00  0.1260E+03
      0.188  0.0000E+00  0.1260E+03
      0.231  0.0000E+00  0.1260E+03
      0.275  0.0000E+00  0.1260E+03
      0.318  0.0000E+00  0.1260E+03
      0.361  0.0000E+00  0.1260E+03
      0.404  0.0000E+00  0.1260E+03
      0.447  0.0000E+00  0.1260E+03
      0.490  0.0000E+00  0.1260E+03
      0.533  0.0000E+00  0.1260E+03
      0.576  0.0000E+00  0.1260E+03
      0.620  0.0000E+00  0.1260E+03
      0.663  0.0000E+00  0.1260E+03
      0.706  0.0000E+00  0.1260E+03
      0.749  0.0000E+00  0.1260E+03
      0.792  0.1466E+00  0.1260E+03
      0.835  0.5538E+03  0.1499E+03
      0.878  0.2550E+01  0.1500E+03
      0.921  0.5397E-04  0.1500E+03
      0.965  0.2356E+03  0.1602E+03
      1.008  0.4268E+02  0.1620E+03
      1.051  0.0000E+00  0.1620E+03
      1.094  0.0000E+00  0.1620E+03
      1.137  0.0000E+00  0.1620E+03
      1.180  0.3863E-02  0.1620E+03
      1.223  0.2703E+03  0.1737E+03
      1.266  0.7946E+01  0.1740E+03
      1.310  0.0000E+00  0.1740E+03
      1.353  0.0000E+00  0.1740E+03
      1.396  0.0000E+00  0.1740E+03
      1.439  0.0000E+00  0.1740E+03
      1.482  0.0000E+00  0.1740E+03
      1.525  0.0000E+00  0.1740E+03
      1.568  0.0000E+00  0.1740E+03
      1.611  0.0000E+00  0.1740E+03
      1.655  0.1764E+00  0.1740E+03
      1.698  0.2775E+03  0.1860E+03
      1.741  0.5635E+00  0.1860E+03
      1.784  0.0000E+00  0.1860E+03
      1.827  0.0000E+00  0.1860E+03
      1.870  0.0000E+00  0.1860E+03
      1.913  0.0000E+00  0.1860E+03
      1.956  0.0000E+00  0.1860E+03
      2.000  0.0000E+00  0.1860E+03
      2.043  0.0000E+00  0.1860E+03
      2.086  0.0000E+00  0.1860E+03
      2.129  0.0000E+00  0.1860E+03
      2.172  0.0000E+00  0.1860E+03
      2.215  0.0000E+00  0.1860E+03
      2.258  0.0000E+00  0.1860E+03
      2.301  0.0000E+00  0.1860E+03
      2.345  0.6568E-01  0.1860E+03
      2.388  0.5519E+03  0.2098E+03
      2.431  0.4545E+01  0.2100E+03
      2.474  0.0000E+00  0.2100E+03
      2.517  0.0000E+00  0.2100E+03
      2.560  0.0000E+00  0.2100E+03
      2.603  0.0000E+00  0.2100E+03
      2.646  0.0000E+00  0.2100E+03
      2.690  0.0000E+00  0.2100E+03
      2.733  0.0000E+00  0.2100E+03
      2.776  0.4484E-08  0.2100E+03
      2.819  0.1411E+03  0.2161E+03
      2.862  0.4154E+03  0.2340E+03
      2.905  0.1502E+00  0.2340E+03
      2.948  0.3697E+03  0.2499E+03
      2.991  0.1175E+01  0.2500E+03
      3.035  0.0000E+00  0.2500E+03
      3.078  0.0000E+00  0.2500E+03
      3.121  0.0000E+00  0.2500E+03
      3.164  0.0000E+00  0.2500E+03
      3.207  0.0000E+00  0.2500E+03
      3.250  0.0000E+00  0.2500E+03
      3.293  0.0000E+00  0.2500E+03
      3.336  0.0000E+00  0.2500E+03
      3.380  0.0000E+00  0.2500E+03
      3.423  0.0000E+00  0.2500E+03
      3.466  0.0000E+00  0.2500E+03
      3.509  0.0000E+00  0.2500E+03
      3.552  0.0000E+00  0.2500E+03
      3.595  0.3308E-06  0.2500E+03
      3.638  0.8275E+02  0.2536E+03
      3.681  0.5638E+02  0.2560E+03
      3.725  0.0000E+00  0.2560E+03
      3.768  0.2189E-04  0.2560E+03
      3.811  0.1159E+03  0.2610E+03
      3.854  0.2326E+02  0.2620E+03
      3.897  0.0000E+00  0.2620E+03
      3.940  0.0000E+00  0.2620E+03
      3.983  0.1521E+01  0.2621E+03
      4.026  0.1376E+03  0.2680E+03
      4.070  0.9822E-02  0.2680E+03
      4.113  0.0000E+00  0.2680E+03
      4.156  0.0000E+00  0.2680E+03
      4.199  0.0000E+00  0.2680E+03
      4.242  0.0000E+00  0.2680E+03
      4.285  0.0000E+00  0.2680E+03
      4.328  0.0000E+00  0.2680E+03
      4.371  0.0000E+00  0.2680E+03
      4.415  0.0000E+00  0.2680E+03
      4.458  0.0000E+00  0.2680E+03
      4.501  0.0000E+00  0.2680E+03
      4.544  0.0000E+00  0.2680E+03
      4.587  0.0000E+00  0.2680E+03
      4.630  0.0000E+00  0.2680E+03
      4.673  0.0000E+00  0.2680E+03
      4.716  0.0000E+00  0.2680E+03
      4.760  0.8621E-09  0.2680E+03
      4.803  0.5978E+02  0.2706E+03
      4.846  0.2214E+03  0.2801E+03
      4.889  0.1826E+03  0.2880E+03
      4.932  0.7469E-02  0.2880E+03
      4.975  0.0000E+00  0.2880E+03
      5.018  0.0000E+00  0.2880E+03
      5.061  0.0000E+00  0.2880E+03
      5.105  0.0000E+00  0.2880E+03
      5.148  0.0000E+00  0.2880E+03
      5.191  0.0000E+00  0.2880E+03
      5.234  0.0000E+00  0.2880E+03
      5.277  0.0000E+00  0.2880E+03
      5.320  0.0000E+00  0.2880E+03
      5.363  0.3088E+00  0.2880E+03
      5.407  0.7049E+03  0.3184E+03
      5.450  0.1296E+03  0.3240E+03
      5.493  0.2997E+02  0.3253E+03
      5.536  0.1641E+02  0.3260E+03
      5.579  0.0000E+00  0.3260E+03
      5.622  0.0000E+00  0.3260E+03
      5.665  0.0000E+00  0.3260E+03
      5.708  0.0000E+00  0.3260E+03
      5.752  0.0000E+00  0.3260E+03
      5.795  0.0000E+00  0.3260E+03
      5.838  0.0000E+00  0.3260E+03
      5.881  0.0000E+00  0.3260E+03
      5.924  0.0000E+00  0.3260E+03
      5.967  0.0000E+00  0.3260E+03
      6.010  0.0000E+00  0.3260E+03
      6.053  0.0000E+00  0.3260E+03
      6.097  0.6052E-11  0.3260E+03
      6.140  0.2461E+02  0.3271E+03
      6.183  0.4850E+03  0.3480E+03
      6.226  0.5415E+00  0.3480E+03
      6.269  0.2079E+01  0.3481E+03
      6.312  0.1370E+03  0.3540E+03
      6.355  0.6083E-02  0.3540E+03
      6.398  0.0000E+00  0.3540E+03
      6.442  0.0000E+00  0.3540E+03
      6.485  0.0000E+00  0.3540E+03
      6.528  0.0000E+00  0.3540E+03
      6.571  0.0000E+00  0.3540E+03
      6.614  0.0000E+00  0.3540E+03
      6.657  0.0000E+00  0.3540E+03
      6.700  0.0000E+00  0.3540E+03
      6.743  0.0000E+00  0.3540E+03
      6.787  0.0000E+00  0.3540E+03
      6.830  0.0000E+00  0.3540E+03
      6.873  0.0000E+00  0.3540E+03
