       N       E                     dE             d eps       ncg     rms          rms(c)
DAV:   1     0.311509272031E+03    0.31151E+03   -0.56801E+04   354   0.659E+02
DAV:   2    -0.254531365182E+03   -0.56604E+03   -0.52614E+03   419   0.114E+02
DAV:   3    -0.298424787346E+03   -0.43893E+02   -0.43075E+02   436   0.282E+01
DAV:   4    -0.299370134181E+03   -0.94535E+00   -0.94148E+00   412   0.484E+00
DAV:   5    -0.299396900898E+03   -0.26767E-01   -0.26750E-01   436   0.811E-01    0.215E+01
DAV:   6    -0.282079032752E+03    0.17318E+02   -0.36245E+01   363   0.696E+00    0.125E+01
DAV:   7    -0.279577372134E+03    0.25017E+01   -0.16206E+01   386   0.484E+00    0.510E+00
DAV:   8    -0.279588501778E+03   -0.11130E-01   -0.96619E-01   370   0.137E+00    0.895E-01
DAV:   9    -0.279586912553E+03    0.15892E-02   -0.14417E-02   428   0.200E-01    0.852E-01
DAV:  10    -0.279587885341E+03   -0.97279E-03   -0.85003E-03   395   0.118E-01    0.574E-01
DAV:  11    -0.279589049025E+03   -0.11637E-02   -0.77214E-03   378   0.132E-01    0.516E-01
DAV:  12    -0.279588837116E+03    0.21191E-03   -0.32584E-04   396   0.267E-02    0.322E-01
DAV:  13    -0.279588594940E+03    0.24218E-03   -0.14585E-03   386   0.439E-02    0.965E-02
DAV:  14    -0.279588607765E+03   -0.12824E-04   -0.60084E-05   420   0.118E-02    0.121E-01
DAV:  15    -0.279588602811E+03    0.49533E-05   -0.49309E-06   404   0.318E-03    0.937E-02
DAV:  16    -0.279588598497E+03    0.43145E-05   -0.24805E-05   396   0.597E-03    0.320E-02
DAV:  17    -0.279588599584E+03   -0.10868E-05   -0.40579E-06   404   0.252E-03    0.114E-02
DAV:  18    -0.279588599741E+03   -0.15699E-06   -0.11320E-07   412   0.515E-04    0.921E-03
DAV:  19    -0.279588600404E+03   -0.66367E-06   -0.46542E-07   396   0.797E-04    0.284E-03
DAV:  20    -0.279588600564E+03   -0.15990E-06   -0.42622E-08   308   0.274E-04    0.366E-04
DAV:  21    -0.279588600601E+03   -0.36527E-07   -0.48138E-09   228   0.105E-04    0.385E-04
DAV:  22    -0.279588600586E+03    0.14919E-07   -0.13850E-09   228   0.563E-05    0.234E-04
DAV:  23    -0.279588600571E+03    0.15272E-07   -0.29782E-10   228   0.294E-05    0.180E-04
DAV:  24    -0.279588600560E+03    0.10781E-07   -0.11332E-10   228   0.179E-05    0.104E-04
DAV:  25    -0.279588600561E+03   -0.90404E-09   -0.56236E-11   228   0.806E-06
   1 F= -.27958860E+03 E0= -.27958860E+03  d E =-.655692E-15
