 vasp.5.4.4.18Apr17-6-g9f103f2a35 (build Apr 28 2017 11:12:57) complex          
  
 executed on             LinuxIFC date 2018.06.27  22:16:30
 running on    2 total cores
 distrk:  each k-point on    1 cores,    2 groups
 distr:  one band on NCORES_PER_BAND=   1 cores,    1 groups


--------------------------------------------------------------------------------------------------------


 INCAR:
 POTCAR:    PAW_PBE Si 05Jan2001                  
 POTCAR:    PAW_PBE Mg 13Apr2007                  

 ----------------------------------------------------------------------------- 
|                                                                             |
|           W    W    AA    RRRRR   N    N  II  N    N   GGGG   !!!           |
|           W    W   A  A   R    R  NN   N  II  NN   N  G    G  !!!           |
|           W    W  A    A  R    R  N N  N  II  N N  N  G       !!!           |
|           W WW W  AAAAAA  RRRRR   N  N N  II  N  N N  G  GGG   !            |
|           WW  WW  A    A  R   R   N   NN  II  N   NN  G    G                |
|           W    W  A    A  R    R  N    N  II  N    N   GGGG   !!!           |
|                                                                             |
|      You have enabled k-point parallelism (KPAR>1).                         |
|      This developmental code was originally  written by Paul Kent at ORNL,  |
|      and carefully double checked in Vienna.                                |
|      GW as well as linear response parallelism added by Martijn Marsman     |
|      and Georg Kresse.                                                      |
|      Carefully verify results versus KPAR=1.                                |
|      Report problems to Paul Kent and Vienna.                               |
|                                                                             |
 ----------------------------------------------------------------------------- 

 POTCAR:    PAW_PBE Si 05Jan2001                  
   VRHFIN =Si: s2p2                                                             
   LEXCH  = PE                                                                  
   EATOM  =   103.0669 eV,    7.5752 Ry                                         
                                                                                
   TITEL  = PAW_PBE Si 05Jan2001                                                
   LULTRA =        F    use ultrasoft PP ?                                      
   IUNSCR =        1    unscreen: 0-lin 1-nonlin 2-no                           
   RPACOR =    1.500    partial core radius                                     
   POMASS =   28.085; ZVAL   =    4.000    mass and valenz                      
   RCORE  =    1.900    outmost cutoff radius                                   
   RWIGS  =    2.480; RWIGS  =    1.312    wigner-seitz radius (au A)           
   ENMAX  =  245.345; ENMIN  =  184.009 eV                                      
   ICORE  =        2    local potential                                         
   LCOR   =        T    correct aug charges                                     
   LPAW   =        T    paw PP                                                  
   EAUG   =  322.069                                                            
   DEXC   =    0.000                                                            
   RMAX   =    1.950    core radius for proj-oper                               
   RAUG   =    1.300    factor for augmentation sphere                          
   RDEP   =    1.993    radius for radial grids                                 
   RDEPT  =    1.837    core radius for aug-charge                              
                                                                                
   Atomic configuration                                                         
    6 entries                                                                   
     n  l   j            E        occ.                                          
     1  0  0.50     -1785.8828   2.0000                                         
     2  0  0.50      -139.4969   2.0000                                         
     2  1  1.50       -95.5546   6.0000                                         
     3  0  0.50       -10.8127   2.0000                                         
     3  1  0.50        -4.0811   2.0000                                         
     3  2  1.50        -4.0817   0.0000                                         
   Description                                                                  
     l       E           TYP  RCUT    TYP  RCUT                                 
     0    -10.8127223     23  1.900                                             
     0     -7.6451159     23  1.900                                             
     1     -4.0811372     23  1.900                                             
     1      2.4879257     23  1.900                                             
     2     -4.0817478      7  1.900                                             
  local pseudopotential read in
  partial core-charges read in
  partial kinetic energy density read in
  atomic valenz-charges read in
  non local Contribution for L=           0  read in
    real space projection operators read in
  non local Contribution for L=           0  read in
    real space projection operators read in
  non local Contribution for L=           1  read in
    real space projection operators read in
  non local Contribution for L=           1  read in
    real space projection operators read in
    PAW grid and wavefunctions read in
 
   number of l-projection  operators is LMAX  =           4
   number of lm-projection operators is LMMAX =           8
 
 POTCAR:    PAW_PBE Mg 13Apr2007                  
   VRHFIN =Mg: s2p0                                                             
   LEXCH  = PE                                                                  
   EATOM  =    23.0369 eV,    1.6932 Ry                                         
                                                                                
   TITEL  = PAW_PBE Mg 13Apr2007                                                
   LULTRA =        F    use ultrasoft PP ?                                      
   IUNSCR =        1    unscreen: 0-lin 1-nonlin 2-no                           
   RPACOR =    1.500    partial core radius                                     
   POMASS =   24.305; ZVAL   =    2.000    mass and valenz                      
   RCORE  =    2.000    outmost cutoff radius                                   
   RWIGS  =    2.880; RWIGS  =    1.524    wigner-seitz radius (au A)           
   ENMAX  =  200.000; ENMIN  =  100.000 eV                                      
   RCLOC  =    1.506    cutoff for local pot                                    
   LCOR   =        T    correct aug charges                                     
   LPAW   =        T    paw PP                                                  
   EAUG   =  454.734                                                            
   DEXC   =    0.000                                                            
   RMAX   =    2.045    core radius for proj-oper                               
   RAUG   =    1.300    factor for augmentation sphere                          
   RDEP   =    2.025    radius for radial grids                                 
   RDEPT  =    1.942    core radius for aug-charge                              
                                                                                
   Atomic configuration                                                         
    6 entries                                                                   
     n  l   j            E        occ.                                          
     1  0  0.50     -1259.6230   2.0000                                         
     2  0  0.50       -79.8442   2.0000                                         
     2  1  1.50       -46.6121   6.0000                                         
     3  0  0.50        -4.7055   2.0000                                         
     3  1  0.50        -1.3660   0.0000                                         
     3  2  1.50        -1.3606   0.0000                                         
   Description                                                                  
     l       E           TYP  RCUT    TYP  RCUT                                 
     0     -4.7054661     23  2.000                                             
     0     27.2116520     23  2.000                                             
     1      1.3605826     23  2.000                                             
     1     27.2116520     23  2.000                                             
     2     -1.3605826     23  2.000                                             
  local pseudopotential read in
  partial core-charges read in
  partial kinetic energy density read in
  atomic valenz-charges read in
  non local Contribution for L=           0  read in
    real space projection operators read in
  non local Contribution for L=           0  read in
    real space projection operators read in
  non local Contribution for L=           1  read in
    real space projection operators read in
  non local Contribution for L=           1  read in
    real space projection operators read in
  non local Contribution for L=           2  read in
    real space projection operators read in
    PAW grid and wavefunctions read in
 
   number of l-projection  operators is LMAX  =           5
   number of lm-projection operators is LMMAX =          13
 

 ----------------------------------------------------------------------------- 
|                                                                             |
|  ADVICE TO THIS USER RUNNING 'VASP/VAMP'   (HEAR YOUR MASTER'S VOICE ...):  |
|                                                                             |
|      You have a (more or less) 'large supercell' and for larger cells       |
|      it might be more efficient to use real space projection opertators     |
|      So try LREAL= Auto  in the INCAR   file.                               |
|      Mind:          For very  accurate calculation you might also keep the  |
|      reciprocal projection scheme          (i.e. LREAL=.FALSE.)             |
|                                                                             |
 ----------------------------------------------------------------------------- 

  PAW_PBE Si 05Jan2001                  :
 energy of atom  1       EATOM= -103.0669
 kinetic energy error for atom=    0.0035 (will be added to EATOM!!)
  PAW_PBE Mg 13Apr2007                  :
 energy of atom  2       EATOM=  -23.0369
 kinetic energy error for atom=    0.0003 (will be added to EATOM!!)
 
 
 POSCAR: generated by phonopy                    
  positions in direct lattice
  No initial velocities read in
 exchange correlation table for  LEXCH =        8
   RHO(1)=    0.500       N(1)  =     2000
   RHO(2)=  100.500       N(2)  =     4000
 


--------------------------------------------------------------------------------------------------------


 ion  position               nearest neighbor table
   1  0.000  0.000  0.000-  42 2.75  51 2.75  60 2.75  69 2.75  78 2.75  87 2.75  96 2.75  33 2.76

   2  0.500  0.000  0.000-  34 2.75  41 2.75  52 2.75  59 2.75  70 2.75  77 2.75  88 2.75  95 2.75

   3  0.000  0.500  0.000-  35 2.75  44 2.75  49 2.75  58 2.75  71 2.75  80 2.75  85 2.75  94 2.75

   4  0.500  0.500  0.000-  36 2.75  43 2.75  50 2.75  57 2.75  72 2.75  79 2.75  86 2.75  93 2.75

   5  0.000  0.000  0.500-  37 2.75  46 2.75  55 2.75  64 2.75  65 2.75  74 2.75  83 2.75  92 2.75

   6  0.500  0.000  0.500-  38 2.75  45 2.75  56 2.75  63 2.75  66 2.75  73 2.75  84 2.75  91 2.75

   7  0.000  0.500  0.500-  39 2.75  48 2.75  53 2.75  62 2.75  67 2.75  76 2.75  81 2.75  90 2.75

   8  0.500  0.500  0.500-  40 2.75  47 2.75  54 2.75  61 2.75  68 2.75  75 2.75  82 2.75  89 2.75

   9  0.250  0.250  0.000-  33 2.75  41 2.75  49 2.75  57 2.75  69 2.75  77 2.75  85 2.75  93 2.75

  10  0.750  0.250  0.000-  34 2.75  42 2.75  50 2.75  58 2.75  70 2.75  78 2.75  86 2.75  94 2.75

  11  0.250  0.750  0.000-  35 2.75  43 2.75  51 2.75  59 2.75  71 2.75  79 2.75  87 2.75  95 2.75

  12  0.750  0.750  0.000-  36 2.75  44 2.75  52 2.75  60 2.75  72 2.75  80 2.75  88 2.75  96 2.75

  13  0.250  0.250  0.500-  37 2.75  45 2.75  53 2.75  61 2.75  65 2.75  73 2.75  81 2.75  89 2.75

  14  0.750  0.250  0.500-  38 2.75  46 2.75  54 2.75  62 2.75  66 2.75  74 2.75  82 2.75  90 2.75

  15  0.250  0.750  0.500-  39 2.75  47 2.75  55 2.75  63 2.75  67 2.75  75 2.75  83 2.75  91 2.75

  16  0.750  0.750  0.500-  40 2.75  48 2.75  56 2.75  64 2.75  68 2.75  76 2.75  84 2.75  92 2.75

  17  0.250  0.000  0.250-  33 2.75  41 2.75  51 2.75  59 2.75  65 2.75  73 2.75  83 2.75  91 2.75

  18  0.750  0.000  0.250-  34 2.75  42 2.75  52 2.75  60 2.75  66 2.75  74 2.75  84 2.75  92 2.75

  19  0.250  0.500  0.250-  35 2.75  43 2.75  49 2.75  57 2.75  67 2.75  75 2.75  81 2.75  89 2.75

  20  0.750  0.500  0.250-  36 2.75  44 2.75  50 2.75  58 2.75  68 2.75  76 2.75  82 2.75  90 2.75

  21  0.250  0.000  0.750-  37 2.75  45 2.75  55 2.75  63 2.75  69 2.75  77 2.75  87 2.75  95 2.75

  22  0.750  0.000  0.750-  38 2.75  46 2.75  56 2.75  64 2.75  70 2.75  78 2.75  88 2.75  96 2.75

  23  0.250  0.500  0.750-  39 2.75  47 2.75  53 2.75  61 2.75  71 2.75  79 2.75  85 2.75  93 2.75

  24  0.750  0.500  0.750-  40 2.75  48 2.75  54 2.75  62 2.75  72 2.75  80 2.75  86 2.75  94 2.75

  25  0.000  0.250  0.250-  42 2.75  49 2.75  58 2.75  65 2.75  74 2.75  81 2.75  90 2.75  33 2.76

  26  0.500  0.250  0.250-  34 2.75  41 2.75  50 2.75  57 2.75  66 2.75  73 2.75  82 2.75  89 2.75

  27  0.000  0.750  0.250-  35 2.75  44 2.75  51 2.75  60 2.75  67 2.75  76 2.75  83 2.75  92 2.75

  28  0.500  0.750  0.250-  36 2.75  43 2.75  52 2.75  59 2.75  68 2.75  75 2.75  84 2.75  91 2.75

  29  0.000  0.250  0.750-  37 2.75  46 2.75  53 2.75  62 2.75  69 2.75  78 2.75  85 2.75  94 2.75

  30  0.500  0.250  0.750-  38 2.75  45 2.75  54 2.75  61 2.75  70 2.75  77 2.75  86 2.75  93 2.75

  31  0.000  0.750  0.750-  39 2.75  48 2.75  55 2.75  64 2.75  71 2.75  80 2.75  87 2.75  96 2.75

  32  0.500  0.750  0.750-  40 2.75  47 2.75  56 2.75  63 2.75  72 2.75  79 2.75  88 2.75  95 2.75

  33  0.126  0.125  0.125-   9 2.75  17 2.75   1 2.76  25 2.76  41 3.17  49 3.18  51 3.18  65 3.18
                            69 3.18  42 3.19
  34  0.625  0.125  0.125-   2 2.75  10 2.75  18 2.75  26 2.75  41 3.18  42 3.18  50 3.18  52 3.18
                            66 3.18  70 3.18
  35  0.125  0.625  0.125-   3 2.75  11 2.75  19 2.75  27 2.75  43 3.18  44 3.18  49 3.18  51 3.18
                            67 3.18  71 3.18
  36  0.625  0.625  0.125-   4 2.75  12 2.75  20 2.75  28 2.75  43 3.18  44 3.18  50 3.18  52 3.18
                            68 3.18  72 3.18
  37  0.125  0.125  0.625-   5 2.75  13 2.75  21 2.75  29 2.75  45 3.18  46 3.18  53 3.18  55 3.18
                            65 3.18  69 3.18
  38  0.625  0.125  0.625-   6 2.75  14 2.75  22 2.75  30 2.75  45 3.18  46 3.18  54 3.18  56 3.18
                            66 3.18  70 3.18
  39  0.125  0.625  0.625-   7 2.75  15 2.75  23 2.75  31 2.75  47 3.18  48 3.18  53 3.18  55 3.18
                            67 3.18  71 3.18
  40  0.625  0.625  0.625-   8 2.75  16 2.75  24 2.75  32 2.75  47 3.18  48 3.18  54 3.18  56 3.18
                            68 3.18  72 3.18
  41  0.375  0.125  0.125-   2 2.75   9 2.75  17 2.75  26 2.75  33 3.17  34 3.18  57 3.18  59 3.18
                            73 3.18  77 3.18
  42  0.875  0.125  0.125-   1 2.75  10 2.75  18 2.75  25 2.75  34 3.18  58 3.18  60 3.18  74 3.18
                            78 3.18  33 3.19
  43  0.375  0.625  0.125-   4 2.75  11 2.75  19 2.75  28 2.75  35 3.18  36 3.18  57 3.18  59 3.18
                            75 3.18  79 3.18
  44  0.875  0.625  0.125-   3 2.75  12 2.75  20 2.75  27 2.75  35 3.18  36 3.18  58 3.18  60 3.18
                            76 3.18  80 3.18
  45  0.375  0.125  0.625-   6 2.75  13 2.75  21 2.75  30 2.75  37 3.18  38 3.18  61 3.18  63 3.18
                            73 3.18  77 3.18
  46  0.875  0.125  0.625-   5 2.75  14 2.75  22 2.75  29 2.75  37 3.18  38 3.18  62 3.18  64 3.18
                            74 3.18  78 3.18
  47  0.375  0.625  0.625-   8 2.75  15 2.75  23 2.75  32 2.75  39 3.18  40 3.18  61 3.18  63 3.18
                            75 3.18  79 3.18
  48  0.875  0.625  0.625-   7 2.75  16 2.75  24 2.75  31 2.75  39 3.18  40 3.18  62 3.18  64 3.18
                            76 3.18  80 3.18
  49  0.125  0.375  0.125-   3 2.75   9 2.75  19 2.75  25 2.75  35 3.18  57 3.18  58 3.18  81 3.18
                            85 3.18  33 3.18
  50  0.625  0.375  0.125-   4 2.75  10 2.75  20 2.75  26 2.75  34 3.18  36 3.18  57 3.18  58 3.18
                            82 3.18  86 3.18
  51  0.125  0.875  0.125-   1 2.75  11 2.75  17 2.75  27 2.75  35 3.18  59 3.18  60 3.18  83 3.18
                            87 3.18  33 3.18
  52  0.625  0.875  0.125-   2 2.75  12 2.75  18 2.75  28 2.75  34 3.18  36 3.18  59 3.18  60 3.18
                            84 3.18  88 3.18
  53  0.125  0.375  0.625-   7 2.75  13 2.75  23 2.75  29 2.75  37 3.18  39 3.18  61 3.18  62 3.18
                            81 3.18  85 3.18
  54  0.625  0.375  0.625-   8 2.75  14 2.75  24 2.75  30 2.75  38 3.18  40 3.18  61 3.18  62 3.18
                            82 3.18  86 3.18
  55  0.125  0.875  0.625-   5 2.75  15 2.75  21 2.75  31 2.75  37 3.18  39 3.18  63 3.18  64 3.18
                            83 3.18  87 3.18
  56  0.625  0.875  0.625-   6 2.75  16 2.75  22 2.75  32 2.75  38 3.18  40 3.18  63 3.18  64 3.18
                            84 3.18  88 3.18
  57  0.375  0.375  0.125-   4 2.75   9 2.75  19 2.75  26 2.75  41 3.18  43 3.18  49 3.18  50 3.18
                            89 3.18  93 3.18
  58  0.875  0.375  0.125-   3 2.75  10 2.75  20 2.75  25 2.75  42 3.18  44 3.18  49 3.18  50 3.18
                            90 3.18  94 3.18
  59  0.375  0.875  0.125-   2 2.75  11 2.75  17 2.75  28 2.75  41 3.18  43 3.18  51 3.18  52 3.18
                            91 3.18  95 3.18
  60  0.875  0.875  0.125-   1 2.75  12 2.75  18 2.75  27 2.75  42 3.18  44 3.18  51 3.18  52 3.18
                            92 3.18  96 3.18
  61  0.375  0.375  0.625-   8 2.75  13 2.75  23 2.75  30 2.75  45 3.18  47 3.18  53 3.18  54 3.18
                            89 3.18  93 3.18
  62  0.875  0.375  0.625-   7 2.75  14 2.75  24 2.75  29 2.75  46 3.18  48 3.18  53 3.18  54 3.18
                            90 3.18  94 3.18
  63  0.375  0.875  0.625-   6 2.75  15 2.75  21 2.75  32 2.75  45 3.18  47 3.18  55 3.18  56 3.18
                            91 3.18  95 3.18
  64  0.875  0.875  0.625-   5 2.75  16 2.75  22 2.75  31 2.75  46 3.18  48 3.18  55 3.18  56 3.18
                            92 3.18  96 3.18
  65  0.125  0.125  0.375-   5 2.75  13 2.75  17 2.75  25 2.75  37 3.18  73 3.18  74 3.18  81 3.18
                            83 3.18  33 3.18
  66  0.625  0.125  0.375-   6 2.75  14 2.75  18 2.75  26 2.75  34 3.18  38 3.18  73 3.18  74 3.18
                            82 3.18  84 3.18
  67  0.125  0.625  0.375-   7 2.75  15 2.75  19 2.75  27 2.75  35 3.18  39 3.18  75 3.18  76 3.18
                            81 3.18  83 3.18
  68  0.625  0.625  0.375-   8 2.75  16 2.75  20 2.75  28 2.75  36 3.18  40 3.18  75 3.18  76 3.18
                            82 3.18  84 3.18
  69  0.125  0.125  0.875-   1 2.75   9 2.75  21 2.75  29 2.75  37 3.18  77 3.18  78 3.18  85 3.18
                            87 3.18  33 3.18
  70  0.625  0.125  0.875-   2 2.75  10 2.75  22 2.75  30 2.75  34 3.18  38 3.18  77 3.18  78 3.18
                            86 3.18  88 3.18
  71  0.125  0.625  0.875-   3 2.75  11 2.75  23 2.75  31 2.75  35 3.18  39 3.18  79 3.18  80 3.18
                            85 3.18  87 3.18
  72  0.625  0.625  0.875-   4 2.75  12 2.75  24 2.75  32 2.75  36 3.18  40 3.18  79 3.18  80 3.18
                            86 3.18  88 3.18
  73  0.375  0.125  0.375-   6 2.75  13 2.75  17 2.75  26 2.75  41 3.18  45 3.18  65 3.18  66 3.18
                            89 3.18  91 3.18
  74  0.875  0.125  0.375-   5 2.75  14 2.75  18 2.75  25 2.75  42 3.18  46 3.18  65 3.18  66 3.18
                            90 3.18  92 3.18
  75  0.375  0.625  0.375-   8 2.75  15 2.75  19 2.75  28 2.75  43 3.18  47 3.18  67 3.18  68 3.18
                            89 3.18  91 3.18
  76  0.875  0.625  0.375-   7 2.75  16 2.75  20 2.75  27 2.75  44 3.18  48 3.18  67 3.18  68 3.18
                            90 3.18  92 3.18
  77  0.375  0.125  0.875-   2 2.75   9 2.75  21 2.75  30 2.75  41 3.18  45 3.18  69 3.18  70 3.18
                            93 3.18  95 3.18
  78  0.875  0.125  0.875-   1 2.75  10 2.75  22 2.75  29 2.75  42 3.18  46 3.18  69 3.18  70 3.18
                            94 3.18  96 3.18
  79  0.375  0.625  0.875-   4 2.75  11 2.75  23 2.75  32 2.75  43 3.18  47 3.18  71 3.18  72 3.18
                            93 3.18  95 3.18
  80  0.875  0.625  0.875-   3 2.75  12 2.75  24 2.75  31 2.75  44 3.18  48 3.18  71 3.18  72 3.18
                            94 3.18  96 3.18
  81  0.125  0.375  0.375-   7 2.75  13 2.75  19 2.75  25 2.75  49 3.18  53 3.18  65 3.18  67 3.18
                            89 3.18  90 3.18
  82  0.625  0.375  0.375-   8 2.75  14 2.75  20 2.75  26 2.75  50 3.18  54 3.18  66 3.18  68 3.18
                            89 3.18  90 3.18
  83  0.125  0.875  0.375-   5 2.75  15 2.75  17 2.75  27 2.75  51 3.18  55 3.18  65 3.18  67 3.18
                            91 3.18  92 3.18
  84  0.625  0.875  0.375-   6 2.75  16 2.75  18 2.75  28 2.75  52 3.18  56 3.18  66 3.18  68 3.18
                            91 3.18  92 3.18
  85  0.125  0.375  0.875-   3 2.75   9 2.75  23 2.75  29 2.75  49 3.18  53 3.18  69 3.18  71 3.18
                            93 3.18  94 3.18
  86  0.625  0.375  0.875-   4 2.75  10 2.75  24 2.75  30 2.75  50 3.18  54 3.18  70 3.18  72 3.18
                            93 3.18  94 3.18
  87  0.125  0.875  0.875-   1 2.75  11 2.75  21 2.75  31 2.75  51 3.18  55 3.18  69 3.18  71 3.18
                            95 3.18  96 3.18
  88  0.625  0.875  0.875-   2 2.75  12 2.75  22 2.75  32 2.75  52 3.18  56 3.18  70 3.18  72 3.18
                            95 3.18  96 3.18
  89  0.375  0.375  0.375-   8 2.75  13 2.75  19 2.75  26 2.75  57 3.18  61 3.18  73 3.18  75 3.18
                            81 3.18  82 3.18
  90  0.875  0.375  0.375-   7 2.75  14 2.75  20 2.75  25 2.75  58 3.18  62 3.18  74 3.18  76 3.18
                            81 3.18  82 3.18
  91  0.375  0.875  0.375-   6 2.75  15 2.75  17 2.75  28 2.75  59 3.18  63 3.18  73 3.18  75 3.18
                            83 3.18  84 3.18
  92  0.875  0.875  0.375-   5 2.75  16 2.75  18 2.75  27 2.75  60 3.18  64 3.18  74 3.18  76 3.18
                            83 3.18  84 3.18
  93  0.375  0.375  0.875-   4 2.75   9 2.75  23 2.75  30 2.75  57 3.18  61 3.18  77 3.18  79 3.18
                            85 3.18  86 3.18
  94  0.875  0.375  0.875-   3 2.75  10 2.75  24 2.75  29 2.75  58 3.18  62 3.18  78 3.18  80 3.18
                            85 3.18  86 3.18
  95  0.375  0.875  0.875-   2 2.75  11 2.75  21 2.75  32 2.75  59 3.18  63 3.18  77 3.18  79 3.18
                            87 3.18  88 3.18
  96  0.875  0.875  0.875-   1 2.75  12 2.75  22 2.75  31 2.75  60 3.18  64 3.18  78 3.18  80 3.18
                            87 3.18  88 3.18
 
  LATTYP: Found a simple cubic cell.
 ALAT       =    12.7112924482
  
  Lattice vectors:
  
 A1 = (  12.7112924482,   0.0000000000,   0.0000000000)
 A2 = (   0.0000000000,  12.7112924482,   0.0000000000)
 A3 = (   0.0000000000,   0.0000000000,  12.7112924482)


Analysis of symmetry for initial positions (statically):
=====================================================================
 Subroutine PRICEL returns:
 Original cell was already a primitive cell.
 

 Routine SETGRP: Setting up the symmetry group for a 
 simple cubic supercell.


 Subroutine GETGRP returns: Found  4 space group operations
 (whereof  2 operations were pure point group operations)
 out of a pool of 48 trial point group operations.


The static configuration has the point symmetry C_1h.
 The point group associated with its full space group is C_2v.


Analysis of symmetry for dynamics (positions and initial velocities):
=====================================================================
 Subroutine PRICEL returns:
 Original cell was already a primitive cell.
 

 Routine SETGRP: Setting up the symmetry group for a 
 simple cubic supercell.


 Subroutine GETGRP returns: Found  4 space group operations
 (whereof  2 operations were pure point group operations)
 out of a pool of 48 trial point group operations.


The dynamic configuration has the point symmetry C_1h.
 The point group associated with its full space group is C_2v.


 Subroutine INISYM returns: Found  4 space group operations
 (whereof  2 operations are pure point group operations),
 and found     1 'primitive' translations

 
 
 KPOINTS: Automatic mesh                          

Automatic generation of k-mesh.
Space group operators:
 irot       det(A)        alpha          n_x          n_y          n_z        tau_x        tau_y        tau_z
    1     1.000000     0.000001     1.000000     0.000000     0.000000     0.000000     0.000000     0.000000
    2    -1.000000   180.000000     0.000000    -0.707107     0.707107     0.000000     0.000000     0.000000
    3    -1.000000   180.000000     0.000000     0.707107     0.707107     0.000000     0.250000     0.250000
    4     1.000000   180.000000     1.000000     0.000000     0.000000     0.000000     0.250000     0.250000
 
 Subroutine IBZKPT returns following result:
 ===========================================
 
 Found      1 irreducible k-points:
 
 Following reciprocal coordinates:
            Coordinates               Weight
  0.000000  0.000000  0.000000      1.000000
 
 Following cartesian coordinates:
            Coordinates               Weight
  0.000000  0.000000  0.000000      1.000000
 


--------------------------------------------------------------------------------------------------------




 Dimension of arrays:
   k-points           NKPTS =      1   k-points in BZ     NKDIM =      1   number of bands    NBANDS=    177
   number of dos      NEDOS =    301   number of ions     NIONS =     96
   non local maximal  LDIM  =      5   non local SUM 2l+1 LMDIM =     13
   total plane-waves  NPLWV = 343000
   max r-space proj   IRMAX =      1   max aug-charges    IRDMAX=   7293
   dimension x,y,z NGX =    70 NGY =   70 NGZ =   70
   dimension x,y,z NGXF=   140 NGYF=  140 NGZF=  140
   support grid    NGXF=   140 NGYF=  140 NGZF=  140
   ions per type =              32  64
   NGX,Y,Z   is equivalent  to a cutoff of   9.16,  9.16,  9.16 a.u.
   NGXF,Y,Z  is equivalent  to a cutoff of  18.31, 18.31, 18.31 a.u.

 SYSTEM =  unknown system                          
 POSCAR =  generated by phonopy                    

 Startparameter for this run:
   NWRITE =      2    write-flag & timer
   PREC   = accura    normal or accurate (medium, high low for compatibility)
   ISTART =      0    job   : 0-new  1-cont  2-samecut
   ICHARG =      2    charge: 1-file 2-atom 10-const
   ISPIN  =      1    spin polarized calculation?
   LNONCOLLINEAR =      F non collinear calculations
   LSORBIT =      F    spin-orbit coupling
   INIWAV =      1    electr: 0-lowe 1-rand  2-diag
   LASPH  =      F    aspherical Exc in radial PAW
   METAGGA=      F    non-selfconsistent MetaGGA calc.

 Electronic Relaxation 1
   ENCUT  =  270.0 eV  19.84 Ry    4.45 a.u.  17.03 17.03 17.03*2*pi/ulx,y,z
   ENINI  =  270.0     initial cutoff
   ENAUG  =  454.7 eV  augmentation charge cutoff
   NELM   =     60;   NELMIN=  2; NELMDL= -5     # of ELM steps 
   EDIFF  = 0.1E-07   stopping-criterion for ELM
   LREAL  =      F    real-space projection
   NLSPLINE    = F    spline interpolate recip. space projectors
   LCOMPAT=      F    compatible to vasp.4.4
   GGA_COMPAT  = T    GGA compatible to vasp.4.4-vasp.4.6
   LMAXPAW     = -100 max onsite density
   LMAXMIX     =    2 max onsite mixed and CHGCAR
   VOSKOWN=      0    Vosko Wilk Nusair interpolation
   ROPT   =    0.00000   0.00000
 Ionic relaxation
   EDIFFG = 0.1E-06   stopping-criterion for IOM
   NSW    =      0    number of steps for IOM
   NBLOCK =      1;   KBLOCK =      1    inner block; outer block 
   IBRION =     -1    ionic relax: 0-MD 1-quasi-New 2-CG
   NFREE  =      0    steps in history (QN), initial steepest desc. (CG)
   ISIF   =      2    stress and relaxation
   IWAVPR =     10    prediction:  0-non 1-charg 2-wave 3-comb
   ISYM   =      2    0-nonsym 1-usesym 2-fastsym
   LCORR  =      T    Harris-Foulkes like correction to forces

   POTIM  = 0.5000    time-step for ionic-motion
   TEIN   =    0.0    initial temperature
   TEBEG  =    0.0;   TEEND  =   0.0 temperature during run
   SMASS  =  -3.00    Nose mass-parameter (am)
   estimated Nose-frequenzy (Omega)   =  0.10E-29 period in steps =****** mass=  -0.369E-26a.u.
   SCALEE = 1.0000    scale energy and forces
   NPACO  =    256;   APACO  = 16.0  distance and # of slots for P.C.
   PSTRESS=    0.0 pullay stress

  Mass of Ions in am
   POMASS =  28.09 24.30
  Ionic Valenz
   ZVAL   =   4.00  2.00
  Atomic Wigner-Seitz radii
   RWIGS  =  -1.00 -1.00
  virtual crystal weights 
   VCA    =   1.00  1.00
   NELECT =     256.0000    total number of electrons
   NUPDOWN=      -1.0000    fix difference up-down

 DOS related values:
   EMIN   =  10.00;   EMAX   =-10.00  energy-range for DOS
   EFERMI =   0.00
   ISMEAR =     0;   SIGMA  =   0.01  broadening in eV -4-tet -1-fermi 0-gaus

 Electronic relaxation 2 (details)
   IALGO  =     38    algorithm
   LDIAG  =      T    sub-space diagonalisation (order eigenvalues)
   LSUBROT=      F    optimize rotation matrix (better conditioning)
   TURBO    =      0    0=normal 1=particle mesh
   IRESTART =      0    0=no restart 2=restart with 2 vectors
   NREBOOT  =      0    no. of reboots
   NMIN     =      0    reboot dimension
   EREF     =   0.00    reference energy to select bands
   IMIX   =      4    mixing-type and parameters
     AMIX     =   0.40;   BMIX     =  1.00
     AMIX_MAG =   1.60;   BMIX_MAG =  1.00
     AMIN     =   0.10
     WC   =   100.;   INIMIX=   1;  MIXPRE=   1;  MAXMIX= -45

 Intra band minimization:
   WEIMIN = 0.0000     energy-eigenvalue tresh-hold
   EBREAK =  0.14E-10  absolut break condition
   DEPER  =   0.30     relativ break condition  

   TIME   =   0.40     timestep for ELM

  volume/ion in A,a.u.               =      21.39       144.38
  Fermi-wavevector in a.u.,A,eV,Ry     =   0.817771  1.545363  9.098891  0.668750
  Thomas-Fermi vector in A             =   1.928279
 
 Write flags
   LWAVE        =      F    write WAVECAR
   LDOWNSAMPLE  =      F    k-point downsampling of WAVECAR
   LCHARG       =      F    write CHGCAR
   LVTOT        =      F    write LOCPOT, total local potential
   LVHAR        =      F    write LOCPOT, Hartree potential only
   LELF         =      F    write electronic localiz. function (ELF)
   LORBIT       =      0    0 simple, 1 ext, 2 COOP (PROOUT), +10 PAW based schemes


 Dipole corrections
   LMONO  =      F    monopole corrections only (constant potential shift)
   LDIPOL =      F    correct potential (dipole corrections)
   IDIPOL =      0    1-x, 2-y, 3-z, 4-all directions 
   EPSILON=  1.0000000 bulk dielectric constant

 Exchange correlation treatment:
   GGA     =    --    GGA type
   LEXCH   =     8    internal setting for exchange type
   VOSKOWN=      0    Vosko Wilk Nusair interpolation
   LHFCALC =     F    Hartree Fock is set to
   LHFONE  =     F    Hartree Fock one center treatment
   AEXX    =    0.0000 exact exchange contribution

 Linear response parameters
   LEPSILON=     F    determine dielectric tensor
   LRPA    =     F    only Hartree local field effects (RPA)
   LNABLA  =     F    use nabla operator in PAW spheres
   LVEL    =     F    velocity operator in full k-point grid
   LINTERFAST=   F  fast interpolation
   KINTER  =     0    interpolate to denser k-point grid
   CSHIFT  =0.1000    complex shift for real part using Kramers Kronig
   OMEGAMAX=  -1.0    maximum frequency
   DEG_THRESHOLD= 0.2000000E-02 threshold for treating states as degnerate
   RTIME   =   -0.100 relaxation time in fs
  (WPLASMAI=    0.000 imaginary part of plasma frequency in eV, 0.658/RTIME)
   DFIELD  = 0.0000000 0.0000000 0.0000000 field for delta impulse in time
 
 Orbital magnetization related:
   ORBITALMAG=     F  switch on orbital magnetization
   LCHIMAG   =     F  perturbation theory with respect to B field
   DQ        =  0.001000  dq finite difference perturbation B field
   LLRAUG    =     F  two centre corrections for induced B field



--------------------------------------------------------------------------------------------------------


 Static calculation
 charge density and potential will be updated during run
 non-spin polarized calculation
 Variant of blocked Davidson
 Davidson routine will perform the subspace rotation
 perform sub-space diagonalisation
    after iterative eigenvector-optimisation
 modified Broyden-mixing scheme, WC =      100.0
 initial mixing is a Kerker type mixing with AMIX =  0.4000 and BMIX =      1.0000
 Hartree-type preconditioning will be used
 using additional bands           49
 reciprocal scheme for non local part
 use partial core corrections
 calculate Harris-corrections to forces 
   (improved forces if not selfconsistent)
 use gradient corrections 
 use of overlap-Matrix (Vanderbilt PP)
 Gauss-broadening in eV      SIGMA  =   0.01


--------------------------------------------------------------------------------------------------------


  energy-cutoff  :      270.00
  volume of cell :     2053.85
      direct lattice vectors                 reciprocal lattice vectors
    12.711292448  0.000000000  0.000000000     0.078670206  0.000000000  0.000000000
     0.000000000 12.711292448  0.000000000     0.000000000  0.078670206  0.000000000
     0.000000000  0.000000000 12.711292448     0.000000000  0.000000000  0.078670206

  length of vectors
    12.711292448 12.711292448 12.711292448     0.078670206  0.078670206  0.078670206


 
 k-points in units of 2pi/SCALE and weight: Automatic mesh                          
   0.00000000  0.00000000  0.00000000       1.000
 
 k-points in reciprocal lattice and weights: Automatic mesh                          
   0.00000000  0.00000000  0.00000000       1.000
 
 position of ions in fractional coordinates (direct lattice) 
   0.00000000  0.00000000  0.00000000
   0.50000000  0.00000000  0.00000000
   0.00000000  0.50000000  0.00000000
   0.50000000  0.50000000  0.00000000
   0.00000000  0.00000000  0.50000000
   0.50000000  0.00000000  0.50000000
   0.00000000  0.50000000  0.50000000
   0.50000000  0.50000000  0.50000000
   0.25000000  0.25000000  0.00000000
   0.75000000  0.25000000  0.00000000
   0.25000000  0.75000000  0.00000000
   0.75000000  0.75000000  0.00000000
   0.25000000  0.25000000  0.50000000
   0.75000000  0.25000000  0.50000000
   0.25000000  0.75000000  0.50000000
   0.75000000  0.75000000  0.50000000
   0.25000000  0.00000000  0.25000000
   0.75000000  0.00000000  0.25000000
   0.25000000  0.50000000  0.25000000
   0.75000000  0.50000000  0.25000000
   0.25000000  0.00000000  0.75000000
   0.75000000  0.00000000  0.75000000
   0.25000000  0.50000000  0.75000000
   0.75000000  0.50000000  0.75000000
   0.00000000  0.25000000  0.25000000
   0.50000000  0.25000000  0.25000000
   0.00000000  0.75000000  0.25000000
   0.50000000  0.75000000  0.25000000
   0.00000000  0.25000000  0.75000000
   0.50000000  0.25000000  0.75000000
   0.00000000  0.75000000  0.75000000
   0.50000000  0.75000000  0.75000000
   0.12578670  0.12500000  0.12500000
   0.62500000  0.12500000  0.12500000
   0.12500000  0.62500000  0.12500000
   0.62500000  0.62500000  0.12500000
   0.12500000  0.12500000  0.62500000
   0.62500000  0.12500000  0.62500000
   0.12500000  0.62500000  0.62500000
   0.62500000  0.62500000  0.62500000
   0.37500000  0.12500000  0.12500000
   0.87500000  0.12500000  0.12500000
   0.37500000  0.62500000  0.12500000
   0.87500000  0.62500000  0.12500000
   0.37500000  0.12500000  0.62500000
   0.87500000  0.12500000  0.62500000
   0.37500000  0.62500000  0.62500000
   0.87500000  0.62500000  0.62500000
   0.12500000  0.37500000  0.12500000
   0.62500000  0.37500000  0.12500000
   0.12500000  0.87500000  0.12500000
   0.62500000  0.87500000  0.12500000
   0.12500000  0.37500000  0.62500000
   0.62500000  0.37500000  0.62500000
   0.12500000  0.87500000  0.62500000
   0.62500000  0.87500000  0.62500000
   0.37500000  0.37500000  0.12500000
   0.87500000  0.37500000  0.12500000
   0.37500000  0.87500000  0.12500000
   0.87500000  0.87500000  0.12500000
   0.37500000  0.37500000  0.62500000
   0.87500000  0.37500000  0.62500000
   0.37500000  0.87500000  0.62500000
   0.87500000  0.87500000  0.62500000
   0.12500000  0.12500000  0.37500000
   0.62500000  0.12500000  0.37500000
   0.12500000  0.62500000  0.37500000
   0.62500000  0.62500000  0.37500000
   0.12500000  0.12500000  0.87500000
   0.62500000  0.12500000  0.87500000
   0.12500000  0.62500000  0.87500000
   0.62500000  0.62500000  0.87500000
   0.37500000  0.12500000  0.37500000
   0.87500000  0.12500000  0.37500000
   0.37500000  0.62500000  0.37500000
   0.87500000  0.62500000  0.37500000
   0.37500000  0.12500000  0.87500000
   0.87500000  0.12500000  0.87500000
   0.37500000  0.62500000  0.87500000
   0.87500000  0.62500000  0.87500000
   0.12500000  0.37500000  0.37500000
   0.62500000  0.37500000  0.37500000
   0.12500000  0.87500000  0.37500000
   0.62500000  0.87500000  0.37500000
   0.12500000  0.37500000  0.87500000
   0.62500000  0.37500000  0.87500000
   0.12500000  0.87500000  0.87500000
   0.62500000  0.87500000  0.87500000
   0.37500000  0.37500000  0.37500000
   0.87500000  0.37500000  0.37500000
   0.37500000  0.87500000  0.37500000
   0.87500000  0.87500000  0.37500000
   0.37500000  0.37500000  0.87500000
   0.87500000  0.37500000  0.87500000
   0.37500000  0.87500000  0.87500000
   0.87500000  0.87500000  0.87500000
 
 position of ions in cartesian coordinates  (Angst):
   0.00000000  0.00000000  0.00000000
   6.35564622  0.00000000  0.00000000
   0.00000000  6.35564622  0.00000000
   6.35564622  6.35564622  0.00000000
   0.00000000  0.00000000  6.35564622
   6.35564622  0.00000000  6.35564622
   0.00000000  6.35564622  6.35564622
   6.35564622  6.35564622  6.35564622
   3.17782311  3.17782311  0.00000000
   9.53346934  3.17782311  0.00000000
   3.17782311  9.53346934  0.00000000
   9.53346934  9.53346934  0.00000000
   3.17782311  3.17782311  6.35564622
   9.53346934  3.17782311  6.35564622
   3.17782311  9.53346934  6.35564622
   9.53346934  9.53346934  6.35564622
   3.17782311  0.00000000  3.17782311
   9.53346934  0.00000000  3.17782311
   3.17782311  6.35564622  3.17782311
   9.53346934  6.35564622  3.17782311
   3.17782311  0.00000000  9.53346934
   9.53346934  0.00000000  9.53346934
   3.17782311  6.35564622  9.53346934
   9.53346934  6.35564622  9.53346934
   0.00000000  3.17782311  3.17782311
   6.35564622  3.17782311  3.17782311
   0.00000000  9.53346934  3.17782311
   6.35564622  9.53346934  3.17782311
   0.00000000  3.17782311  9.53346934
   6.35564622  3.17782311  9.53346934
   0.00000000  9.53346934  9.53346934
   6.35564622  9.53346934  9.53346934
   1.59891156  1.58891156  1.58891156
   7.94455778  1.58891156  1.58891156
   1.58891156  7.94455778  1.58891156
   7.94455778  7.94455778  1.58891156
   1.58891156  1.58891156  7.94455778
   7.94455778  1.58891156  7.94455778
   1.58891156  7.94455778  7.94455778
   7.94455778  7.94455778  7.94455778
   4.76673467  1.58891156  1.58891156
  11.12238089  1.58891156  1.58891156
   4.76673467  7.94455778  1.58891156
  11.12238089  7.94455778  1.58891156
   4.76673467  1.58891156  7.94455778
  11.12238089  1.58891156  7.94455778
   4.76673467  7.94455778  7.94455778
  11.12238089  7.94455778  7.94455778
   1.58891156  4.76673467  1.58891156
   7.94455778  4.76673467  1.58891156
   1.58891156 11.12238089  1.58891156
   7.94455778 11.12238089  1.58891156
   1.58891156  4.76673467  7.94455778
   7.94455778  4.76673467  7.94455778
   1.58891156 11.12238089  7.94455778
   7.94455778 11.12238089  7.94455778
   4.76673467  4.76673467  1.58891156
  11.12238089  4.76673467  1.58891156
   4.76673467 11.12238089  1.58891156
  11.12238089 11.12238089  1.58891156
   4.76673467  4.76673467  7.94455778
  11.12238089  4.76673467  7.94455778
   4.76673467 11.12238089  7.94455778
  11.12238089 11.12238089  7.94455778
   1.58891156  1.58891156  4.76673467
   7.94455778  1.58891156  4.76673467
   1.58891156  7.94455778  4.76673467
   7.94455778  7.94455778  4.76673467
   1.58891156  1.58891156 11.12238089
   7.94455778  1.58891156 11.12238089
   1.58891156  7.94455778 11.12238089
   7.94455778  7.94455778 11.12238089
   4.76673467  1.58891156  4.76673467
  11.12238089  1.58891156  4.76673467
   4.76673467  7.94455778  4.76673467
  11.12238089  7.94455778  4.76673467
   4.76673467  1.58891156 11.12238089
  11.12238089  1.58891156 11.12238089
   4.76673467  7.94455778 11.12238089
  11.12238089  7.94455778 11.12238089
   1.58891156  4.76673467  4.76673467
   7.94455778  4.76673467  4.76673467
   1.58891156 11.12238089  4.76673467
   7.94455778 11.12238089  4.76673467
   1.58891156  4.76673467 11.12238089
   7.94455778  4.76673467 11.12238089
   1.58891156 11.12238089 11.12238089
   7.94455778 11.12238089 11.12238089
   4.76673467  4.76673467  4.76673467
  11.12238089  4.76673467  4.76673467
   4.76673467 11.12238089  4.76673467
  11.12238089 11.12238089  4.76673467
   4.76673467  4.76673467 11.12238089
  11.12238089  4.76673467 11.12238089
   4.76673467 11.12238089 11.12238089
  11.12238089 11.12238089 11.12238089
 


--------------------------------------------------------------------------------------------------------


 k-point  1 :   0.0000 0.0000 0.0000  plane waves:   20719

 maximum and minimum number of plane-waves per node :     20719    20719

 maximum number of plane-waves:     20719
 maximum index in each direction: 
   IXMAX=   17   IYMAX=   17   IZMAX=   17
   IXMIN=  -17   IYMIN=  -17   IZMIN=  -17


 serial   3D FFT for wavefunctions
 parallel 3D FFT for charge:
    minimum data exchange during FFTs selected (reduces bandwidth)


 total amount of memory used by VASP MPI-rank0   392398. kBytes
=======================================================================

   base      :      30000. kBytes
   nonl-proj :      36133. kBytes
   fftplans  :      94700. kBytes
   grid      :     169030. kBytes
   one-center:        778. kBytes
   wavefun   :      61757. kBytes
 
     INWAV:  cpu time    0.0000: real time    0.0002
 Broyden mixing: mesh for mixing (old mesh)
   NGX = 35   NGY = 35   NGZ = 35
  (NGX  =140   NGY  =140   NGZ  =140)
  gives a total of  42875 points

 initial charge density was supplied:
 charge density of overlapping atoms calculated
 number of electron     256.0000000 magnetization 
 keeping initial charge density in first step


--------------------------------------------------------------------------------------------------------


 Maximum index for augmentation-charges         6872 (set IRDMAX)


--------------------------------------------------------------------------------------------------------


 First call to EWALD:  gamma=   0.139
 Maximum number of real-space cells 3x 3x 3
 Maximum number of reciprocal cells 3x 3x 3

    FEWALD:  cpu time    0.0240: real time    0.0237


--------------------------------------- Iteration      1(   1)  ---------------------------------------


    POTLOK:  cpu time    1.2761: real time    1.2828
    SETDIJ:  cpu time    0.1320: real time    0.1320
     EDDAV:  cpu time   26.1736: real time   26.2285
       DOS:  cpu time    0.0000: real time    0.0005
    --------------------------------------------
      LOOP:  cpu time   27.5817: real time   27.6438

 eigenvalue-minimisations  :   354
 total energy-change (2. order) : 0.3115093E+03  (-0.5680076E+04)
 number of electron     256.0000000 magnetization 
 augmentation part      256.0000000 magnetization 

 Free energy of the ion-electron system (eV)
  ---------------------------------------------------
  alpha Z        PSCENC =       213.07712613
  Ewald energy   TEWEN  =     -5235.19901026
  -Hartree energ DENC   =      -333.86714384
  -exchange      EXHF   =         0.00000000
  -V(xc)+E(xc)   XCENC  =     -3430.69745701
  PAW double counting   =      6999.59008484    -3117.38992839
  entropy T*S    EENTRO =        -0.00000097
  eigenvalues    EBANDS =       443.62599575
  atomic energy  EATOM  =      4772.36960577
  Solvation  Ediel_sol  =         0.00000000
  ---------------------------------------------------
  free energy    TOTEN  =       311.50927203 eV

  energy without entropy =      311.50927300  energy(sigma->0) =      311.50927252


--------------------------------------------------------------------------------------------------------




--------------------------------------- Iteration      1(   2)  ---------------------------------------


     EDDAV:  cpu time   29.8539: real time   29.9032
       DOS:  cpu time    0.0000: real time    0.0003
    --------------------------------------------
      LOOP:  cpu time   29.8539: real time   29.9035

 eigenvalue-minimisations  :   419
 total energy-change (2. order) :-0.5660406E+03  (-0.5261401E+03)
 number of electron     256.0000000 magnetization 
 augmentation part      256.0000000 magnetization 

 Free energy of the ion-electron system (eV)
  ---------------------------------------------------
  alpha Z        PSCENC =       213.07712613
  Ewald energy   TEWEN  =     -5235.19901026
  -Hartree energ DENC   =      -333.86714384
  -exchange      EXHF   =         0.00000000
  -V(xc)+E(xc)   XCENC  =     -3430.69745701
  PAW double counting   =      6999.59008484    -3117.38992839
  entropy T*S    EENTRO =        -0.00000000
  eigenvalues    EBANDS =      -122.41464243
  atomic energy  EATOM  =      4772.36960577
  Solvation  Ediel_sol  =         0.00000000
  ---------------------------------------------------
  free energy    TOTEN  =      -254.53136518 eV

  energy without entropy =     -254.53136518  energy(sigma->0) =     -254.53136518


--------------------------------------------------------------------------------------------------------




--------------------------------------- Iteration      1(   3)  ---------------------------------------


     EDDAV:  cpu time   30.0539: real time   30.1095
       DOS:  cpu time    0.0000: real time    0.0003
    --------------------------------------------
      LOOP:  cpu time   30.0579: real time   30.1098

 eigenvalue-minimisations  :   436
 total energy-change (2. order) :-0.4389342E+02  (-0.4307507E+02)
 number of electron     256.0000000 magnetization 
 augmentation part      256.0000000 magnetization 

 Free energy of the ion-electron system (eV)
  ---------------------------------------------------
  alpha Z        PSCENC =       213.07712613
  Ewald energy   TEWEN  =     -5235.19901026
  -Hartree energ DENC   =      -333.86714384
  -exchange      EXHF   =         0.00000000
  -V(xc)+E(xc)   XCENC  =     -3430.69745701
  PAW double counting   =      6999.59008484    -3117.38992839
  entropy T*S    EENTRO =        -0.00000000
  eigenvalues    EBANDS =      -166.30806460
  atomic energy  EATOM  =      4772.36960577
  Solvation  Ediel_sol  =         0.00000000
  ---------------------------------------------------
  free energy    TOTEN  =      -298.42478735 eV

  energy without entropy =     -298.42478735  energy(sigma->0) =     -298.42478735


--------------------------------------------------------------------------------------------------------




--------------------------------------- Iteration      1(   4)  ---------------------------------------


     EDDAV:  cpu time   28.7378: real time   28.7869
       DOS:  cpu time    0.0000: real time    0.0002
    --------------------------------------------
      LOOP:  cpu time   28.7338: real time   28.7872

 eigenvalue-minimisations  :   412
 total energy-change (2. order) :-0.9453468E+00  (-0.9414806E+00)
 number of electron     256.0000000 magnetization 
 augmentation part      256.0000000 magnetization 

 Free energy of the ion-electron system (eV)
  ---------------------------------------------------
  alpha Z        PSCENC =       213.07712613
  Ewald energy   TEWEN  =     -5235.19901026
  -Hartree energ DENC   =      -333.86714384
  -exchange      EXHF   =         0.00000000
  -V(xc)+E(xc)   XCENC  =     -3430.69745701
  PAW double counting   =      6999.59008484    -3117.38992839
  entropy T*S    EENTRO =        -0.00000000
  eigenvalues    EBANDS =      -167.25341143
  atomic energy  EATOM  =      4772.36960577
  Solvation  Ediel_sol  =         0.00000000
  ---------------------------------------------------
  free energy    TOTEN  =      -299.37013418 eV

  energy without entropy =     -299.37013418  energy(sigma->0) =     -299.37013418


--------------------------------------------------------------------------------------------------------




--------------------------------------- Iteration      1(   5)  ---------------------------------------


     EDDAV:  cpu time   30.0579: real time   30.1083
       DOS:  cpu time    0.0000: real time    0.0003
    CHARGE:  cpu time    0.7760: real time    0.7778
    MIXING:  cpu time    0.0440: real time    0.0445
    --------------------------------------------
      LOOP:  cpu time   30.8779: real time   30.9308

 eigenvalue-minimisations  :   436
 total energy-change (2. order) :-0.2676672E-01  (-0.2675030E-01)
 number of electron     256.0000073 magnetization 
 augmentation part       -7.8587573 magnetization 

 Broyden mixing:
  rms(total) = 0.21496E+01    rms(broyden)= 0.21496E+01
  rms(prec ) = 0.28011E+01
  weight for this iteration     100.00

 Free energy of the ion-electron system (eV)
  ---------------------------------------------------
  alpha Z        PSCENC =       213.07712613
  Ewald energy   TEWEN  =     -5235.19901026
  -Hartree energ DENC   =      -333.86714384
  -exchange      EXHF   =         0.00000000
  -V(xc)+E(xc)   XCENC  =     -3430.69745701
  PAW double counting   =      6999.59008484    -3117.38992839
  entropy T*S    EENTRO =        -0.00000000
  eigenvalues    EBANDS =      -167.28017815
  atomic energy  EATOM  =      4772.36960577
  Solvation  Ediel_sol  =         0.00000000
  ---------------------------------------------------
  free energy    TOTEN  =      -299.39690090 eV

  energy without entropy =     -299.39690090  energy(sigma->0) =     -299.39690090


--------------------------------------------------------------------------------------------------------




--------------------------------------- Iteration      1(   6)  ---------------------------------------


    POTLOK:  cpu time    1.2521: real time    1.2527
    SETDIJ:  cpu time    0.1520: real time    0.1530
     EDDAV:  cpu time   26.0576: real time   26.1055
       DOS:  cpu time    0.0000: real time    0.0003
    CHARGE:  cpu time    0.7640: real time    0.7659
    MIXING:  cpu time    0.0480: real time    0.0453
    --------------------------------------------
      LOOP:  cpu time   28.2738: real time   28.3226

 eigenvalue-minimisations  :   363
 total energy-change (2. order) : 0.1731787E+02  (-0.3624490E+01)
 number of electron     256.0000068 magnetization 
 augmentation part       -7.1804069 magnetization 

 Broyden mixing:
  rms(total) = 0.12545E+01    rms(broyden)= 0.12545E+01
  rms(prec ) = 0.14692E+01
  weight for this iteration     100.00

 eigenvalues of (default mixing * dielectric matrix)
  average eigenvalue GAMMA=   1.9249
  1.9249

 Free energy of the ion-electron system (eV)
  ---------------------------------------------------
  alpha Z        PSCENC =       213.07712613
  Ewald energy   TEWEN  =     -5235.19901026
  -Hartree energ DENC   =      -419.76752876
  -exchange      EXHF   =         0.00000000
  -V(xc)+E(xc)   XCENC  =     -3418.20497355
  PAW double counting   =      9940.93346610    -6062.62241394
  entropy T*S    EENTRO =        -0.00000000
  eigenvalues    EBANDS =       -72.66530423
  atomic energy  EATOM  =      4772.36960577
  Solvation  Ediel_sol  =         0.00000000
  ---------------------------------------------------
  free energy    TOTEN  =      -282.07903275 eV

  energy without entropy =     -282.07903275  energy(sigma->0) =     -282.07903275


--------------------------------------------------------------------------------------------------------




--------------------------------------- Iteration      1(   7)  ---------------------------------------


    POTLOK:  cpu time    1.2481: real time    1.2530
    SETDIJ:  cpu time    0.1520: real time    0.1511
     EDDAV:  cpu time   27.3177: real time   27.3667
       DOS:  cpu time    0.0000: real time    0.0003
    CHARGE:  cpu time    0.7680: real time    0.7703
    MIXING:  cpu time    0.0480: real time    0.0464
    --------------------------------------------
      LOOP:  cpu time   29.5338: real time   29.5878

 eigenvalue-minimisations  :   386
 total energy-change (2. order) : 0.2501661E+01  (-0.1620605E+01)
 number of electron     256.0000064 magnetization 
 augmentation part       -6.6785910 magnetization 

 Broyden mixing:
  rms(total) = 0.51021E+00    rms(broyden)= 0.51021E+00
  rms(prec ) = 0.54782E+00
  weight for this iteration     100.00

 eigenvalues of (default mixing * dielectric matrix)
  average eigenvalue GAMMA=   2.1228
  1.6021  2.6435

 Free energy of the ion-electron system (eV)
  ---------------------------------------------------
  alpha Z        PSCENC =       213.07712613
  Ewald energy   TEWEN  =     -5235.19901026
  -Hartree energ DENC   =      -485.33654256
  -exchange      EXHF   =         0.00000000
  -V(xc)+E(xc)   XCENC  =     -3406.43665584
  PAW double counting   =     15100.94211815   -11224.47630140
  entropy T*S    EENTRO =        -0.00000000
  eigenvalues    EBANDS =       -14.51771211
  atomic energy  EATOM  =      4772.36960577
  Solvation  Ediel_sol  =         0.00000000
  ---------------------------------------------------
  free energy    TOTEN  =      -279.57737213 eV

  energy without entropy =     -279.57737213  energy(sigma->0) =     -279.57737213


--------------------------------------------------------------------------------------------------------




--------------------------------------- Iteration      1(   8)  ---------------------------------------


    POTLOK:  cpu time    1.2521: real time    1.2529
    SETDIJ:  cpu time    0.1480: real time    0.1496
     EDDAV:  cpu time   26.4417: real time   26.4874
       DOS:  cpu time    0.0000: real time    0.0003
    CHARGE:  cpu time    0.7640: real time    0.7656
    MIXING:  cpu time    0.0480: real time    0.0474
    --------------------------------------------
      LOOP:  cpu time   28.6538: real time   28.7030

 eigenvalue-minimisations  :   370
 total energy-change (2. order) :-0.1112964E-01  (-0.9661897E-01)
 number of electron     256.0000064 magnetization 
 augmentation part       -6.7332069 magnetization 

 Broyden mixing:
  rms(total) = 0.89480E-01    rms(broyden)= 0.89480E-01
  rms(prec ) = 0.95470E-01
  weight for this iteration     100.00

 eigenvalues of (default mixing * dielectric matrix)
  average eigenvalue GAMMA=   1.4659
  2.6181  1.5940  0.1857

 Free energy of the ion-electron system (eV)
  ---------------------------------------------------
  alpha Z        PSCENC =       213.07712613
  Ewald energy   TEWEN  =     -5235.19901026
  -Hartree energ DENC   =      -484.95591806
  -exchange      EXHF   =         0.00000000
  -V(xc)+E(xc)   XCENC  =     -3403.11119276
  PAW double counting   =     18639.36906078   -14761.52113754
  entropy T*S    EENTRO =        -0.00000000
  eigenvalues    EBANDS =       -19.61703583
  atomic energy  EATOM  =      4772.36960577
  Solvation  Ediel_sol  =         0.00000000
  ---------------------------------------------------
  free energy    TOTEN  =      -279.58850178 eV

  energy without entropy =     -279.58850178  energy(sigma->0) =     -279.58850178


--------------------------------------------------------------------------------------------------------




--------------------------------------- Iteration      1(   9)  ---------------------------------------


    POTLOK:  cpu time    1.2481: real time    1.2525
    SETDIJ:  cpu time    0.1480: real time    0.1497
     EDDAV:  cpu time   29.6379: real time   29.6897
       DOS:  cpu time    0.0000: real time    0.0003
    CHARGE:  cpu time    0.7640: real time    0.7655
    MIXING:  cpu time    0.0480: real time    0.0490
    --------------------------------------------
      LOOP:  cpu time   31.8460: real time   31.9067

 eigenvalue-minimisations  :   428
 total energy-change (2. order) : 0.1589226E-02  (-0.1441692E-02)
 number of electron     256.0000064 magnetization 
 augmentation part       -6.7366394 magnetization 

 Broyden mixing:
  rms(total) = 0.85222E-01    rms(broyden)= 0.85222E-01
  rms(prec ) = 0.89674E-01
  weight for this iteration     100.00

 eigenvalues of (default mixing * dielectric matrix)
  average eigenvalue GAMMA=   1.9254
  1.8785  1.8785  1.9722  1.9722

 Free energy of the ion-electron system (eV)
  ---------------------------------------------------
  alpha Z        PSCENC =       213.07712613
  Ewald energy   TEWEN  =     -5235.19901026
  -Hartree energ DENC   =      -485.76827717
  -exchange      EXHF   =         0.00000000
  -V(xc)+E(xc)   XCENC  =     -3403.06235466
  PAW double counting   =     18497.19672305   -14619.40943123
  entropy T*S    EENTRO =        -0.00000000
  eigenvalues    EBANDS =       -18.79129418
  atomic energy  EATOM  =      4772.36960577
  Solvation  Ediel_sol  =         0.00000000
  ---------------------------------------------------
  free energy    TOTEN  =      -279.58691255 eV

  energy without entropy =     -279.58691255  energy(sigma->0) =     -279.58691255


--------------------------------------------------------------------------------------------------------




--------------------------------------- Iteration      1(  10)  ---------------------------------------


    POTLOK:  cpu time    1.2521: real time    1.2522
    SETDIJ:  cpu time    0.1480: real time    0.1485
     EDDAV:  cpu time   27.8177: real time   27.8682
       DOS:  cpu time    0.0000: real time    0.0002
    CHARGE:  cpu time    0.7640: real time    0.7655
    MIXING:  cpu time    0.0520: real time    0.0504
    --------------------------------------------
      LOOP:  cpu time   30.0339: real time   30.0851

 eigenvalue-minimisations  :   395
 total energy-change (2. order) :-0.9727880E-03  (-0.8500326E-03)
 number of electron     256.0000064 magnetization 
 augmentation part       -6.7252101 magnetization 

 Broyden mixing:
  rms(total) = 0.57402E-01    rms(broyden)= 0.57402E-01
  rms(prec ) = 0.61146E-01
  weight for this iteration     100.00

 eigenvalues of (default mixing * dielectric matrix)
  average eigenvalue GAMMA=   1.8269
  2.9517  2.6315  1.3340  1.3340  0.8832

 Free energy of the ion-electron system (eV)
  ---------------------------------------------------
  alpha Z        PSCENC =       213.07712613
  Ewald energy   TEWEN  =     -5235.19901026
  -Hartree energ DENC   =      -487.05484207
  -exchange      EXHF   =         0.00000000
  -V(xc)+E(xc)   XCENC  =     -3403.11266181
  PAW double counting   =     17494.50903459   -13616.83659669
  entropy T*S    EENTRO =        -0.00000000
  eigenvalues    EBANDS =       -17.34054100
  atomic energy  EATOM  =      4772.36960577
  Solvation  Ediel_sol  =         0.00000000
  ---------------------------------------------------
  free energy    TOTEN  =      -279.58788534 eV

  energy without entropy =     -279.58788534  energy(sigma->0) =     -279.58788534


--------------------------------------------------------------------------------------------------------




--------------------------------------- Iteration      1(  11)  ---------------------------------------


    POTLOK:  cpu time    1.2481: real time    1.2525
    SETDIJ:  cpu time    0.1480: real time    0.1491
     EDDAV:  cpu time   26.8697: real time   26.9172
       DOS:  cpu time    0.0040: real time    0.0003
    CHARGE:  cpu time    0.7360: real time    0.7408
    MIXING:  cpu time    0.0520: real time    0.0526
    --------------------------------------------
      LOOP:  cpu time   29.0618: real time   29.1124

 eigenvalue-minimisations  :   378
 total energy-change (2. order) :-0.1163684E-02  (-0.7721424E-03)
 number of electron     256.0000064 magnetization 
 augmentation part       -6.7184080 magnetization 

 Broyden mixing:
  rms(total) = 0.51568E-01    rms(broyden)= 0.51568E-01
  rms(prec ) = 0.52076E-01
  weight for this iteration     100.00

 eigenvalues of (default mixing * dielectric matrix)
  average eigenvalue GAMMA=   1.6440
  2.9674  2.4718  1.5314  1.0207  1.0207  0.8523

 Free energy of the ion-electron system (eV)
  ---------------------------------------------------
  alpha Z        PSCENC =       213.07712613
  Ewald energy   TEWEN  =     -5235.19901026
  -Hartree energ DENC   =      -489.35124884
  -exchange      EXHF   =         0.00000000
  -V(xc)+E(xc)   XCENC  =     -3402.54797588
  PAW double counting   =     17514.48995548   -13636.80706050
  entropy T*S    EENTRO =        -0.00000000
  eigenvalues    EBANDS =       -15.62044092
  atomic energy  EATOM  =      4772.36960577
  Solvation  Ediel_sol  =         0.00000000
  ---------------------------------------------------
  free energy    TOTEN  =      -279.58904902 eV

  energy without entropy =     -279.58904902  energy(sigma->0) =     -279.58904902


--------------------------------------------------------------------------------------------------------




--------------------------------------- Iteration      1(  12)  ---------------------------------------


    POTLOK:  cpu time    1.2481: real time    1.2475
    SETDIJ:  cpu time    0.1520: real time    0.1539
     EDDAV:  cpu time   27.8777: real time   27.9248
       DOS:  cpu time    0.0000: real time    0.0003
    CHARGE:  cpu time    0.7400: real time    0.7409
    MIXING:  cpu time    0.0520: real time    0.0542
    --------------------------------------------
      LOOP:  cpu time   30.0659: real time   30.1215

 eigenvalue-minimisations  :   396
 total energy-change (2. order) : 0.2119085E-03  (-0.3258370E-04)
 number of electron     256.0000064 magnetization 
 augmentation part       -6.7192715 magnetization 

 Broyden mixing:
  rms(total) = 0.32235E-01    rms(broyden)= 0.32235E-01
  rms(prec ) = 0.32668E-01
  weight for this iteration     100.00

 eigenvalues of (default mixing * dielectric matrix)
  average eigenvalue GAMMA=   1.7385
  3.0028  2.5173  1.6945  1.6945  1.6351  0.9828  0.6426

 Free energy of the ion-electron system (eV)
  ---------------------------------------------------
  alpha Z        PSCENC =       213.07712613
  Ewald energy   TEWEN  =     -5235.19901026
  -Hartree energ DENC   =      -489.18389575
  -exchange      EXHF   =         0.00000000
  -V(xc)+E(xc)   XCENC  =     -3402.54484819
  PAW double counting   =     17658.30317499   -13780.60789776
  entropy T*S    EENTRO =        -0.00000000
  eigenvalues    EBANDS =       -15.80309204
  atomic energy  EATOM  =      4772.36960577
  Solvation  Ediel_sol  =         0.00000000
  ---------------------------------------------------
  free energy    TOTEN  =      -279.58883712 eV

  energy without entropy =     -279.58883712  energy(sigma->0) =     -279.58883712


--------------------------------------------------------------------------------------------------------




--------------------------------------- Iteration      1(  13)  ---------------------------------------


    POTLOK:  cpu time    1.2481: real time    1.2482
    SETDIJ:  cpu time    0.1520: real time    0.1527
     EDDAV:  cpu time   27.3057: real time   27.3556
       DOS:  cpu time    0.0000: real time    0.0002
    CHARGE:  cpu time    0.7400: real time    0.7409
    MIXING:  cpu time    0.0560: real time    0.0559
    --------------------------------------------
      LOOP:  cpu time   29.5018: real time   29.5535

 eigenvalue-minimisations  :   386
 total energy-change (2. order) : 0.2421759E-03  (-0.1458507E-03)
 number of electron     256.0000064 magnetization 
 augmentation part       -6.7241701 magnetization 

 Broyden mixing:
  rms(total) = 0.96540E-02    rms(broyden)= 0.96540E-02
  rms(prec ) = 0.97667E-02
  weight for this iteration     100.00

 eigenvalues of (default mixing * dielectric matrix)
  average eigenvalue GAMMA=   1.6700
  3.1124  2.4747  2.1717  1.4384  1.4384  1.0255  1.0255  0.6736

 Free energy of the ion-electron system (eV)
  ---------------------------------------------------
  alpha Z        PSCENC =       213.07712613
  Ewald energy   TEWEN  =     -5235.19901026
  -Hartree energ DENC   =      -488.71212535
  -exchange      EXHF   =         0.00000000
  -V(xc)+E(xc)   XCENC  =     -3402.54411082
  PAW double counting   =     17964.13174808   -14086.39747790
  entropy T*S    EENTRO =        -0.00000000
  eigenvalues    EBANDS =       -16.31435059
  atomic energy  EATOM  =      4772.36960577
  Solvation  Ediel_sol  =         0.00000000
  ---------------------------------------------------
  free energy    TOTEN  =      -279.58859494 eV

  energy without entropy =     -279.58859494  energy(sigma->0) =     -279.58859494


--------------------------------------------------------------------------------------------------------




--------------------------------------- Iteration      1(  14)  ---------------------------------------


    POTLOK:  cpu time    1.2481: real time    1.2485
    SETDIJ:  cpu time    0.1520: real time    0.1534
     EDDAV:  cpu time   29.7459: real time   29.7975
       DOS:  cpu time    0.0000: real time    0.0011
    CHARGE:  cpu time    0.7440: real time    0.7448
    MIXING:  cpu time    0.0560: real time    0.0559
    --------------------------------------------
      LOOP:  cpu time   31.9460: real time   32.0011

 eigenvalue-minimisations  :   420
 total energy-change (2. order) :-0.1282441E-04  (-0.6008436E-05)
 number of electron     256.0000064 magnetization 
 augmentation part       -6.7251132 magnetization 

 Broyden mixing:
  rms(total) = 0.12102E-01    rms(broyden)= 0.12102E-01
  rms(prec ) = 0.12220E-01
  weight for this iteration     100.00

 eigenvalues of (default mixing * dielectric matrix)
  average eigenvalue GAMMA=   1.6517
  3.0276  2.5467  2.5467  1.4706  1.4706  0.9959  1.0780  1.0780  0.6510

 Free energy of the ion-electron system (eV)
  ---------------------------------------------------
  alpha Z        PSCENC =       213.07712613
  Ewald energy   TEWEN  =     -5235.19901026
  -Hartree energ DENC   =      -488.69740234
  -exchange      EXHF   =         0.00000000
  -V(xc)+E(xc)   XCENC  =     -3402.54764174
  PAW double counting   =     17973.28125279   -14095.54498128
  entropy T*S    EENTRO =        -0.00000000
  eigenvalues    EBANDS =       -16.32755684
  atomic energy  EATOM  =      4772.36960577
  Solvation  Ediel_sol  =         0.00000000
  ---------------------------------------------------
  free energy    TOTEN  =      -279.58860776 eV

  energy without entropy =     -279.58860776  energy(sigma->0) =     -279.58860776


--------------------------------------------------------------------------------------------------------




--------------------------------------- Iteration      1(  15)  ---------------------------------------


    POTLOK:  cpu time    1.2561: real time    1.2599
    SETDIJ:  cpu time    0.1400: real time    0.1415
     EDDAV:  cpu time   28.9258: real time   28.9741
       DOS:  cpu time    0.0000: real time    0.0020
    CHARGE:  cpu time    0.7440: real time    0.7454
    MIXING:  cpu time    0.0560: real time    0.0580
    --------------------------------------------
      LOOP:  cpu time   31.1219: real time   31.1809

 eigenvalue-minimisations  :   404
 total energy-change (2. order) : 0.4953321E-05  (-0.4930937E-06)
 number of electron     256.0000064 magnetization 
 augmentation part       -6.7248974 magnetization 

 Broyden mixing:
  rms(total) = 0.93746E-02    rms(broyden)= 0.93746E-02
  rms(prec ) = 0.94710E-02
  weight for this iteration     100.00

 eigenvalues of (default mixing * dielectric matrix)
  average eigenvalue GAMMA=   1.6577
  3.2219  2.6291  2.6291  1.4147  1.4147  1.4223  0.9703  1.1127  1.0949  0.6678

 Free energy of the ion-electron system (eV)
  ---------------------------------------------------
  alpha Z        PSCENC =       213.07712613
  Ewald energy   TEWEN  =     -5235.19901026
  -Hartree energ DENC   =      -488.71842231
  -exchange      EXHF   =         0.00000000
  -V(xc)+E(xc)   XCENC  =     -3402.55096674
  PAW double counting   =     17951.91834082   -14074.18405718
  entropy T*S    EENTRO =        -0.00000000
  eigenvalues    EBANDS =       -16.30121904
  atomic energy  EATOM  =      4772.36960577
  Solvation  Ediel_sol  =         0.00000000
  ---------------------------------------------------
  free energy    TOTEN  =      -279.58860281 eV

  energy without entropy =     -279.58860281  energy(sigma->0) =     -279.58860281


--------------------------------------------------------------------------------------------------------




--------------------------------------- Iteration      1(  16)  ---------------------------------------


    POTLOK:  cpu time    1.2681: real time    1.2751
    SETDIJ:  cpu time    0.1320: real time    0.1333
     EDDAV:  cpu time   28.6538: real time   28.7032
       DOS:  cpu time    0.0000: real time    0.0003
    CHARGE:  cpu time    0.7760: real time    0.7739
    MIXING:  cpu time    0.0560: real time    0.0596
    --------------------------------------------
      LOOP:  cpu time   30.8859: real time   30.9452

 eigenvalue-minimisations  :   396
 total energy-change (2. order) : 0.4314521E-05  (-0.2480475E-05)
 number of electron     256.0000064 magnetization 
 augmentation part       -6.7242566 magnetization 

 Broyden mixing:
  rms(total) = 0.32034E-02    rms(broyden)= 0.32034E-02
  rms(prec ) = 0.32391E-02
  weight for this iteration     100.00

 eigenvalues of (default mixing * dielectric matrix)
  average eigenvalue GAMMA=   1.6296
  3.2905  2.7904  2.5435  1.5030  1.5030  1.4989  1.0774  1.0774  0.9941  0.9941
  0.6531

 Free energy of the ion-electron system (eV)
  ---------------------------------------------------
  alpha Z        PSCENC =       213.07712613
  Ewald energy   TEWEN  =     -5235.19901026
  -Hartree energ DENC   =      -488.78635220
  -exchange      EXHF   =         0.00000000
  -V(xc)+E(xc)   XCENC  =     -3402.55308847
  PAW double counting   =     17906.36709635   -14028.63784649
  entropy T*S    EENTRO =        -0.00000000
  eigenvalues    EBANDS =       -16.22612932
  atomic energy  EATOM  =      4772.36960577
  Solvation  Ediel_sol  =         0.00000000
  ---------------------------------------------------
  free energy    TOTEN  =      -279.58859850 eV

  energy without entropy =     -279.58859850  energy(sigma->0) =     -279.58859850


--------------------------------------------------------------------------------------------------------




--------------------------------------- Iteration      1(  17)  ---------------------------------------


    POTLOK:  cpu time    1.2681: real time    1.2667
    SETDIJ:  cpu time    0.1320: real time    0.1351
     EDDAV:  cpu time   28.9578: real time   29.0061
       DOS:  cpu time    0.0000: real time    0.0003
    CHARGE:  cpu time    0.7720: real time    0.7737
    MIXING:  cpu time    0.0600: real time    0.0616
    --------------------------------------------
      LOOP:  cpu time   31.1900: real time   31.2435

 eigenvalue-minimisations  :   404
 total energy-change (2. order) :-0.1086839E-05  (-0.4057863E-06)
 number of electron     256.0000064 magnetization 
 augmentation part       -6.7239367 magnetization 

 Broyden mixing:
  rms(total) = 0.11427E-02    rms(broyden)= 0.11427E-02
  rms(prec ) = 0.11562E-02
  weight for this iteration     100.00

 eigenvalues of (default mixing * dielectric matrix)
  average eigenvalue GAMMA=   1.6466
  3.3030  2.7487  2.5473  1.6859  1.6859  1.3597  1.3597  1.5083  0.6609  1.0117
  1.0117  0.8765

 Free energy of the ion-electron system (eV)
  ---------------------------------------------------
  alpha Z        PSCENC =       213.07712613
  Ewald energy   TEWEN  =     -5235.19901026
  -Hartree energ DENC   =      -488.80908703
  -exchange      EXHF   =         0.00000000
  -V(xc)+E(xc)   XCENC  =     -3402.55369091
  PAW double counting   =     17892.59343232   -14014.86590531
  entropy T*S    EENTRO =        -0.00000000
  eigenvalues    EBANDS =       -16.20107028
  atomic energy  EATOM  =      4772.36960577
  Solvation  Ediel_sol  =         0.00000000
  ---------------------------------------------------
  free energy    TOTEN  =      -279.58859958 eV

  energy without entropy =     -279.58859958  energy(sigma->0) =     -279.58859958


--------------------------------------------------------------------------------------------------------




--------------------------------------- Iteration      1(  18)  ---------------------------------------


    POTLOK:  cpu time    1.2641: real time    1.2667
    SETDIJ:  cpu time    0.1400: real time    0.1376
     EDDAV:  cpu time   29.5778: real time   29.6300
       DOS:  cpu time    0.0000: real time    0.0003
    CHARGE:  cpu time    0.7720: real time    0.7737
    MIXING:  cpu time    0.0640: real time    0.0639
    --------------------------------------------
      LOOP:  cpu time   31.8180: real time   31.8721

 eigenvalue-minimisations  :   412
 total energy-change (2. order) :-0.1569897E-06  (-0.1132037E-07)
 number of electron     256.0000064 magnetization 
 augmentation part       -6.7238998 magnetization 

 Broyden mixing:
  rms(total) = 0.92092E-03    rms(broyden)= 0.92092E-03
  rms(prec ) = 0.93256E-03
  weight for this iteration     100.00

 eigenvalues of (default mixing * dielectric matrix)
  average eigenvalue GAMMA=   1.6168
  3.3662  2.8590  2.4960  1.6785  1.6785  1.4797  1.4797  1.5349  1.0253  1.0253
  0.6563  0.8697  0.8697

 Free energy of the ion-electron system (eV)
  ---------------------------------------------------
  alpha Z        PSCENC =       213.07712613
  Ewald energy   TEWEN  =     -5235.19901026
  -Hartree energ DENC   =      -488.81226884
  -exchange      EXHF   =         0.00000000
  -V(xc)+E(xc)   XCENC  =     -3402.55361050
  PAW double counting   =     17891.53039129   -14013.80299646
  entropy T*S    EENTRO =        -0.00000000
  eigenvalues    EBANDS =       -16.19783686
  atomic energy  EATOM  =      4772.36960577
  Solvation  Ediel_sol  =         0.00000000
  ---------------------------------------------------
  free energy    TOTEN  =      -279.58859974 eV

  energy without entropy =     -279.58859974  energy(sigma->0) =     -279.58859974


--------------------------------------------------------------------------------------------------------




--------------------------------------- Iteration      1(  19)  ---------------------------------------


    POTLOK:  cpu time    1.2641: real time    1.2671
    SETDIJ:  cpu time    0.1360: real time    0.1350
     EDDAV:  cpu time   28.4778: real time   28.5280
       DOS:  cpu time    0.0000: real time    0.0003
    CHARGE:  cpu time    0.7760: real time    0.7775
    MIXING:  cpu time    0.0640: real time    0.0659
    --------------------------------------------
      LOOP:  cpu time   30.7179: real time   30.7739

 eigenvalue-minimisations  :   396
 total energy-change (2. order) :-0.6636747E-06  (-0.4654154E-07)
 number of electron     256.0000064 magnetization 
 augmentation part       -6.7238154 magnetization 

 Broyden mixing:
  rms(total) = 0.28385E-03    rms(broyden)= 0.28385E-03
  rms(prec ) = 0.28544E-03
  weight for this iteration     100.00

 eigenvalues of (default mixing * dielectric matrix)
  average eigenvalue GAMMA=   1.6036
  3.4285  2.8627  2.4932  1.5550  1.5550  1.5728  1.5728  1.5985  1.2368  1.2368
  0.9580  0.9580  0.6623  0.7605

 Free energy of the ion-electron system (eV)
  ---------------------------------------------------
  alpha Z        PSCENC =       213.07712613
  Ewald energy   TEWEN  =     -5235.19901026
  -Hartree energ DENC   =      -488.82213321
  -exchange      EXHF   =         0.00000000
  -V(xc)+E(xc)   XCENC  =     -3402.55353883
  PAW double counting   =     17887.08368294   -14009.35689299
  entropy T*S    EENTRO =        -0.00000000
  eigenvalues    EBANDS =       -16.18743995
  atomic energy  EATOM  =      4772.36960577
  Solvation  Ediel_sol  =         0.00000000
  ---------------------------------------------------
  free energy    TOTEN  =      -279.58860040 eV

  energy without entropy =     -279.58860040  energy(sigma->0) =     -279.58860040


--------------------------------------------------------------------------------------------------------




--------------------------------------- Iteration      1(  20)  ---------------------------------------


    POTLOK:  cpu time    1.2601: real time    1.2633
    SETDIJ:  cpu time    0.1400: real time    0.1395
     EDDAV:  cpu time   23.5495: real time   23.5909
       DOS:  cpu time    0.0000: real time    0.0003
    CHARGE:  cpu time    0.7720: real time    0.7727
    MIXING:  cpu time    0.0680: real time    0.0684
    --------------------------------------------
      LOOP:  cpu time   25.7896: real time   25.8352

 eigenvalue-minimisations  :   308
 total energy-change (2. order) :-0.1599019E-06  (-0.4262237E-08)
 number of electron     256.0000064 magnetization 
 augmentation part       -6.7237831 magnetization 

 Broyden mixing:
  rms(total) = 0.36630E-04    rms(broyden)= 0.36630E-04
  rms(prec ) = 0.37118E-04
  weight for this iteration     100.00

 eigenvalues of (default mixing * dielectric matrix)
  average eigenvalue GAMMA=   1.4999
  3.4277  2.8618  2.4920  1.5558  1.5558  1.5734  1.5734  1.5935  1.2353  1.2353
  0.9594  0.9594  0.6627  0.7560  0.0571

 Free energy of the ion-electron system (eV)
  ---------------------------------------------------
  alpha Z        PSCENC =       213.07712613
  Ewald energy   TEWEN  =     -5235.19901026
  -Hartree energ DENC   =      -488.82416904
  -exchange      EXHF   =         0.00000000
  -V(xc)+E(xc)   XCENC  =     -3402.55364895
  PAW double counting   =     17885.36416398   -14007.63750715
  entropy T*S    EENTRO =        -0.00000000
  eigenvalues    EBANDS =       -16.18516104
  atomic energy  EATOM  =      4772.36960577
  Solvation  Ediel_sol  =         0.00000000
  ---------------------------------------------------
  free energy    TOTEN  =      -279.58860056 eV

  energy without entropy =     -279.58860056  energy(sigma->0) =     -279.58860056


--------------------------------------------------------------------------------------------------------




--------------------------------------- Iteration      1(  21)  ---------------------------------------


    POTLOK:  cpu time    1.2601: real time    1.2643
    SETDIJ:  cpu time    0.1400: real time    0.1385
     EDDAV:  cpu time   19.1052: real time   19.1421
       DOS:  cpu time    0.0000: real time    0.0003
[...]
   0.226E-02 0.424E-03 -.424E-03   -.235E-02 0.113E-02 -.113E-02   0.374E-03 -.218E-02 0.218E-02   -.162E-05 0.566E-06 -.566E-06
   -.218E-02 0.709E-03 -.709E-03   0.235E-02 -.816E-03 0.816E-03   -.389E-03 0.117E-03 -.117E-03   0.158E-05 -.397E-06 0.397E-06
   -.123E-01 0.608E-01 0.608E-01   0.258E-02 -.548E-01 -.548E-01   0.163E-01 -.965E-02 -.965E-02   -.138E-05 0.548E-06 0.548E-06
   -.150E-01 -.510E-02 -.510E-02   0.164E-01 0.526E-02 0.526E-02   -.202E-02 -.401E-03 -.401E-03   0.157E-05 -.104E-05 -.104E-05
   0.393E-02 -.579E-02 0.126E-02   -.462E-02 0.525E-02 -.209E-02   0.131E-02 0.621E-03 0.129E-02   -.352E-06 0.330E-07 0.679E-06
   -.433E-02 0.176E-02 -.136E-02   0.469E-02 -.253E-02 0.113E-02   -.966E-03 0.117E-02 0.389E-03   0.983E-07 0.112E-05 -.183E-06
   0.393E-02 0.126E-02 -.579E-02   -.462E-02 -.209E-02 0.525E-02   0.131E-02 0.129E-02 0.621E-03   -.352E-06 0.679E-06 0.330E-07
   -.433E-02 -.136E-02 0.176E-02   0.469E-02 0.113E-02 -.253E-02   -.966E-03 0.389E-03 0.117E-02   0.983E-07 -.183E-06 0.112E-05
   0.224E-02 0.409E-03 0.409E-03   -.234E-02 0.113E-02 0.113E-02   0.373E-03 -.217E-02 -.217E-02   0.135E-05 -.133E-05 -.133E-05
   -.217E-02 0.705E-03 0.705E-03   0.234E-02 -.820E-03 -.820E-03   -.393E-03 0.123E-03 0.123E-03   -.749E-06 0.324E-06 0.324E-06
   0.172E+00 0.413E-06 0.529E-08   -.149E+00 -.255E-14 -.433E-14   -.660E-01 0.000E+00 -.258E-25   -.707E-06 -.210E-15 -.293E-14
   -.872E-02 0.439E-06 0.562E-08   0.961E-02 -.511E-14 0.222E-14   -.395E-03 0.258E-25 0.258E-25   -.142E-07 0.828E-15 -.116E-14
   0.291E-02 0.444E-06 0.145E-08   -.304E-02 -.311E-14 -.111E-14   0.733E-04 0.000E+00 0.000E+00   -.549E-06 0.151E-14 -.279E-14
   -.181E-02 0.444E-06 0.145E-08   0.239E-02 -.533E-14 -.311E-14   -.534E-03 0.000E+00 0.000E+00   -.519E-07 -.109E-15 -.485E-16
   0.291E-02 0.444E-06 0.146E-08   -.304E-02 -.422E-14 0.555E-14   0.733E-04 0.355E-25 0.000E+00   -.549E-06 -.463E-15 -.626E-14
   -.181E-02 0.444E-06 0.146E-08   0.239E-02 -.466E-14 0.222E-14   -.534E-03 -.646E-26 -.646E-26   -.519E-07 0.593E-16 -.905E-14
   -.213E-02 0.444E-06 0.163E-08   -.126E-02 -.111E-14 -.433E-14   0.175E-02 -.103E-24 -.103E-24   -.526E-06 0.174E-14 -.694E-14
   -.814E-03 0.444E-06 0.164E-08   0.117E-02 -.222E-14 -.322E-14   -.178E-03 0.000E+00 0.000E+00   0.189E-06 0.153E-15 -.104E-13
   -.361E-01 -.439E-06 -.562E-08   0.379E-01 -.344E-14 -.999E-15   0.849E-02 0.517E-25 0.258E-25   0.168E-05 0.216E-14 -.415E-15
   -.358E-01 -.439E-06 -.562E-08   0.376E-01 -.244E-14 0.222E-14   0.826E-02 0.000E+00 0.258E-25   -.952E-06 -.750E-15 -.457E-14
   -.540E-03 -.444E-06 -.145E-08   0.317E-03 -.216E-14 0.144E-14   0.240E-03 0.000E+00 0.000E+00   0.215E-06 -.505E-15 -.251E-15
   -.561E-03 -.444E-06 -.145E-08   0.330E-03 -.311E-14 -.111E-14   0.245E-03 -.129E-25 0.101E-27   0.371E-06 0.274E-14 -.333E-14
   -.540E-03 -.444E-06 -.146E-08   0.317E-03 -.389E-14 0.183E-14   0.240E-03 0.000E+00 0.388E-25   0.215E-06 0.124E-14 -.103E-13
   -.561E-03 -.444E-06 -.146E-08   0.330E-03 -.466E-14 0.444E-15   0.245E-03 0.000E+00 0.000E+00   0.371E-06 -.825E-15 -.592E-14
   0.144E-02 -.444E-06 -.163E-08   0.377E-04 -.777E-15 -.611E-15   -.762E-03 0.775E-25 0.000E+00   -.106E-05 -.323E-15 -.106E-13
   0.144E-02 -.444E-06 -.164E-08   0.436E-04 0.444E-15 0.222E-15   -.762E-03 0.000E+00 0.000E+00   0.139E-05 0.297E-14 -.731E-14
   0.142E-01 0.777E-04 0.297E-02   -.171E-01 -.836E-04 -.205E-14   0.277E-03 -.131E-04 -.161E-02   -.596E-06 0.472E-06 -.408E-08
   -.454E-02 -.656E-05 -.686E-03   0.524E-02 0.864E-05 -.500E-15   -.419E-03 -.247E-06 0.336E-03   -.701E-07 -.916E-06 -.316E-06
   0.142E-01 -.786E-04 -.297E-02   -.171E-01 0.836E-04 0.155E-14   0.277E-03 0.131E-04 0.161E-02   -.596E-06 -.472E-06 0.408E-08
   -.454E-02 0.567E-05 0.686E-03   0.524E-02 -.864E-05 -.111E-14   -.419E-03 0.247E-06 -.336E-03   -.701E-07 0.916E-06 0.316E-06
   0.984E-03 0.180E-05 -.450E-03   -.204E-02 -.218E-05 0.222E-15   0.445E-03 -.137E-06 0.996E-04   -.465E-06 0.843E-06 0.242E-06
   -.141E-02 -.509E-05 0.214E-04   0.174E-02 0.150E-05 -.133E-14   -.247E-03 0.175E-05 0.609E-04   -.322E-07 -.306E-06 0.237E-06
   0.984E-03 -.269E-05 0.450E-03   -.204E-02 0.218E-05 -.666E-15   0.445E-03 0.137E-06 -.996E-04   -.465E-06 -.843E-06 -.242E-06
   -.141E-02 0.420E-05 -.214E-04   0.174E-02 -.150E-05 -.244E-14   -.247E-03 -.175E-05 -.609E-04   -.322E-07 0.306E-06 -.237E-06
   -.315E-02 -.726E-02 0.115E-02   0.462E-02 0.886E-02 -.291E-14   -.467E-03 -.564E-03 -.442E-03   0.824E-06 -.116E-06 -.150E-06
   -.317E-02 0.722E-02 0.115E-02   0.464E-02 -.882E-02 -.777E-15   -.463E-03 0.560E-03 -.441E-03   -.163E-06 -.214E-06 -.260E-06
   -.315E-02 0.726E-02 -.115E-02   0.462E-02 -.886E-02 0.322E-14   -.467E-03 0.564E-03 0.442E-03   0.824E-06 0.116E-06 0.150E-06
   -.317E-02 -.722E-02 -.115E-02   0.464E-02 0.882E-02 0.266E-14   -.463E-03 -.560E-03 0.441E-03   -.163E-06 0.214E-06 0.260E-06
   0.195E-03 -.121E-02 -.263E-03   0.143E-03 0.729E-03 0.111E-15   -.755E-04 0.141E-03 0.128E-03   -.370E-06 0.106E-06 0.242E-06
   0.180E-03 0.121E-02 -.267E-03   0.152E-03 -.729E-03 0.422E-14   -.729E-04 -.142E-03 0.131E-03   0.856E-06 0.247E-06 0.354E-06
   0.195E-03 0.121E-02 0.263E-03   0.143E-03 -.729E-03 -.233E-14   -.755E-04 -.141E-03 -.128E-03   -.370E-06 -.106E-06 -.242E-06
   0.180E-03 -.121E-02 0.267E-03   0.152E-03 0.729E-03 0.888E-15   -.729E-04 0.142E-03 -.131E-03   0.856E-06 -.247E-06 -.354E-06
   0.142E-01 0.297E-02 0.781E-04   -.171E-01 -.150E-14 -.836E-04   0.277E-03 -.161E-02 -.131E-04   -.596E-06 -.408E-08 0.472E-06
   -.454E-02 -.687E-03 -.612E-05   0.524E-02 -.328E-14 0.864E-05   -.419E-03 0.336E-03 -.247E-06   -.701E-07 -.316E-06 -.916E-06
   0.984E-03 -.451E-03 0.225E-05   -.204E-02 -.105E-14 -.218E-05   0.445E-03 0.996E-04 -.137E-06   -.465E-06 0.242E-06 0.843E-06
   -.141E-02 0.210E-04 -.464E-05   0.174E-02 0.722E-15 0.150E-05   -.247E-03 0.609E-04 0.175E-05   -.322E-07 0.237E-06 -.306E-06
   0.142E-01 -.297E-02 -.781E-04   -.171E-01 -.377E-14 0.836E-04   0.277E-03 0.161E-02 0.131E-04   -.596E-06 0.408E-08 -.472E-06
   -.454E-02 0.686E-03 0.611E-05   0.524E-02 -.111E-14 -.864E-05   -.419E-03 -.336E-03 0.247E-06   -.701E-07 0.316E-06 0.916E-06
   0.984E-03 0.450E-03 -.225E-05   -.204E-02 -.666E-15 0.218E-05   0.445E-03 -.996E-04 0.137E-06   -.465E-06 -.242E-06 -.843E-06
   -.141E-02 -.219E-04 0.464E-05   0.174E-02 -.155E-14 -.150E-05   -.247E-03 -.609E-04 -.175E-05   -.322E-07 -.237E-06 0.306E-06
   -.315E-02 0.115E-02 -.726E-02   0.462E-02 -.480E-14 0.886E-02   -.467E-03 -.442E-03 -.564E-03   0.824E-06 -.150E-06 -.116E-06
   -.317E-02 0.115E-02 0.722E-02   0.464E-02 -.255E-14 -.882E-02   -.463E-03 -.441E-03 0.560E-03   -.163E-06 -.260E-06 -.214E-06
   0.195E-03 -.262E-03 -.121E-02   0.143E-03 -.361E-15 0.729E-03   -.755E-04 0.128E-03 0.141E-03   -.370E-06 0.242E-06 0.106E-06
   0.180E-03 -.266E-03 0.121E-02   0.152E-03 -.777E-15 -.729E-03   -.729E-04 0.131E-03 -.142E-03   0.856E-06 0.354E-06 0.247E-06
   -.315E-02 -.115E-02 0.726E-02   0.462E-02 -.311E-14 -.886E-02   -.467E-03 0.442E-03 0.564E-03   0.824E-06 0.150E-06 0.116E-06
   -.317E-02 -.115E-02 -.722E-02   0.464E-02 -.444E-14 0.882E-02   -.463E-03 0.441E-03 -.560E-03   -.163E-06 0.260E-06 0.214E-06
   0.195E-03 0.263E-03 0.121E-02   0.143E-03 -.400E-14 -.729E-03   -.755E-04 -.128E-03 -.141E-03   -.370E-06 -.242E-06 -.106E-06
   0.180E-03 0.267E-03 -.121E-02   0.152E-03 -.888E-15 0.729E-03   -.729E-04 -.131E-03 0.142E-03   0.856E-06 -.354E-06 -.247E-06
   0.211E-02 -.164E-02 -.164E-02   -.574E-02 -.142E-04 -.142E-04   0.157E-02 0.947E-03 0.947E-03   -.522E-06 0.396E-06 0.396E-06
   -.276E-02 0.283E-03 0.282E-03   0.323E-02 0.425E-05 0.425E-05   -.273E-03 -.151E-03 -.151E-03   -.260E-06 -.574E-06 -.574E-06
   0.210E-02 -.168E-02 0.168E-02   -.574E-02 0.142E-04 -.142E-04   0.159E-02 0.960E-03 -.960E-03   -.463E-06 -.623E-06 0.623E-06
   -.276E-02 0.291E-03 -.291E-03   0.323E-02 -.425E-05 0.425E-05   -.274E-03 -.152E-03 0.152E-03   0.308E-07 0.645E-06 -.645E-06
   0.210E-02 0.168E-02 -.168E-02   -.574E-02 -.142E-04 0.142E-04   0.159E-02 -.960E-03 0.960E-03   -.463E-06 0.623E-06 -.623E-06
   -.276E-02 -.290E-03 0.291E-03   0.323E-02 0.425E-05 -.425E-05   -.274E-03 0.152E-03 -.152E-03   0.308E-07 -.645E-06 0.645E-06
   0.211E-02 0.164E-02 0.164E-02   -.574E-02 0.142E-04 0.142E-04   0.157E-02 -.947E-03 -.947E-03   -.522E-06 -.396E-06 -.396E-06
   -.276E-02 -.282E-03 -.282E-03   0.323E-02 -.425E-05 -.425E-05   -.273E-03 0.151E-03 0.151E-03   -.260E-06 0.574E-06 0.574E-06
   -.149E-02 -.281E-02 -.281E-02   0.117E-02 0.298E-02 0.298E-02   0.155E-03 -.763E-04 -.763E-04   0.218E-06 -.700E-07 -.700E-07
   0.277E-02 0.104E-02 0.104E-02   0.118E-02 -.297E-02 -.297E-02   -.192E-02 0.146E-02 0.146E-02   0.574E-06 -.157E-06 -.157E-06
   0.277E-02 0.107E-02 -.108E-02   0.117E-02 -.298E-02 0.298E-02   -.190E-02 0.143E-02 -.143E-02   0.187E-06 -.254E-07 0.254E-07
   -.150E-02 -.280E-02 0.280E-02   0.118E-02 0.297E-02 -.297E-02   0.155E-03 -.764E-04 0.764E-04   0.221E-06 0.689E-07 -.689E-07
   0.277E-02 -.108E-02 0.108E-02   0.117E-02 0.298E-02 -.298E-02   -.190E-02 -.143E-02 0.143E-02   0.187E-06 0.254E-07 -.254E-07
   -.150E-02 0.280E-02 -.280E-02   0.118E-02 -.297E-02 0.297E-02   0.155E-03 0.764E-04 -.764E-04   0.221E-06 -.689E-07 0.689E-07
   -.149E-02 0.281E-02 0.281E-02   0.117E-02 -.298E-02 -.298E-02   0.155E-03 0.763E-04 0.763E-04   0.218E-06 0.700E-07 0.700E-07
   0.277E-02 -.104E-02 -.104E-02   0.118E-02 0.297E-02 0.297E-02   -.192E-02 -.146E-02 -.146E-02   0.574E-06 0.157E-06 0.157E-06
 -----------------------------------------------------------------------------------------------
   -.441E-02 -.260E-07 -.334E-09   0.560E-14 0.304E-13 0.150E-13   0.443E-02 -.130E-17 0.130E-17   0.124E-05 0.226E-13 -.226E-13
 
 
 POSITION                                       TOTAL-FORCE (eV/Angst)
 -----------------------------------------------------------------------------------
      0.00000      0.00000      0.00000         0.006510      0.003735      0.003735
      6.35565      0.00000      0.00000        -0.000696      0.000239      0.000239
      0.00000      6.35565      0.00000         0.000615     -0.000075     -0.000450
      6.35565      6.35565      0.00000        -0.000608     -0.000397     -0.000168
      0.00000      0.00000      6.35565         0.000615     -0.000450     -0.000075
      6.35565      0.00000      6.35565        -0.000608     -0.000168     -0.000397
      0.00000      6.35565      6.35565         0.000276      0.000625      0.000625
      6.35565      6.35565      6.35565        -0.000217     -0.000008     -0.000008
      3.17782      3.17782      0.00000         0.006627      0.003877     -0.003877
      9.53347      3.17782      0.00000        -0.000696      0.000237     -0.000237
      3.17782      9.53347      0.00000         0.000610     -0.000075      0.000453
      9.53347      9.53347      0.00000        -0.000609     -0.000404      0.000173
      3.17782      3.17782      6.35565         0.000610     -0.000453      0.000075
      9.53347      3.17782      6.35565        -0.000609     -0.000173      0.000404
      3.17782      9.53347      6.35565         0.000272      0.000623     -0.000623
      9.53347      9.53347      6.35565        -0.000217     -0.000011      0.000011
      3.17782      0.00000      3.17782         0.006627     -0.003877      0.003877
      9.53347      0.00000      3.17782        -0.000696     -0.000237      0.000237
      3.17782      6.35565      3.17782         0.000610      0.000075     -0.000453
      9.53347      6.35565      3.17782        -0.000609      0.000404     -0.000173
      3.17782      0.00000      9.53347         0.000610      0.000453     -0.000075
      9.53347      0.00000      9.53347        -0.000609      0.000173     -0.000404
      3.17782      6.35565      9.53347         0.000272     -0.000623      0.000623
      9.53347      6.35565      9.53347        -0.000217      0.000011     -0.000011
      0.00000      3.17782      3.17782         0.006510     -0.003735     -0.003735
      6.35565      3.17782      3.17782        -0.000696     -0.000239     -0.000239
      0.00000      9.53347      3.17782         0.000615      0.000075      0.000450
      6.35565      9.53347      3.17782        -0.000608      0.000397      0.000168
      0.00000      3.17782      9.53347         0.000615      0.000450      0.000075
      6.35565      3.17782      9.53347        -0.000608      0.000168      0.000397
      0.00000      9.53347      9.53347         0.000276     -0.000625     -0.000625
      6.35565      9.53347      9.53347        -0.000217      0.000008      0.000008
      1.59891      1.58891      1.58891        -0.042985     -0.000000      0.000000
      7.94456      1.58891      1.58891         0.000500     -0.000000      0.000000
      1.58891      7.94456      1.58891        -0.000063     -0.000000      0.000000
      7.94456      7.94456      1.58891         0.000050     -0.000000      0.000000
      1.58891      1.58891      7.94456        -0.000063     -0.000000      0.000000
      7.94456      1.58891      7.94456         0.000050     -0.000000      0.000000
      1.58891      7.94456      7.94456        -0.001641     -0.000000      0.000000
      7.94456      7.94456      7.94456         0.000183     -0.000000      0.000000
      4.76673      1.58891      1.58891         0.010273     -0.000000      0.000000
     11.12238      1.58891      1.58891         0.010019     -0.000000      0.000000
      4.76673      7.94456      1.58891         0.000017     -0.000000      0.000000
     11.12238      7.94456      1.58891         0.000014     -0.000000      0.000000
      4.76673      1.58891      7.94456         0.000017     -0.000000      0.000000
     11.12238      1.58891      7.94456         0.000014     -0.000000      0.000000
      4.76673      7.94456      7.94456         0.000719     -0.000000      0.000000
     11.12238      7.94456      7.94456         0.000719     -0.000000      0.000000
      1.58891      4.76673      1.58891        -0.002683     -0.000018      0.001364
      7.94456      4.76673      1.58891         0.000279      0.000001     -0.000350
      1.58891     11.12238      1.58891        -0.002683      0.000018     -0.001364
      7.94456     11.12238      1.58891         0.000279     -0.000001      0.000350
      1.58891      4.76673      7.94456        -0.000610      0.000001     -0.000350
      7.94456      4.76673      7.94456         0.000081     -0.000002      0.000083
      1.58891     11.12238      7.94456        -0.000610     -0.000001      0.000350
      7.94456     11.12238      7.94456         0.000081      0.000002     -0.000083
      4.76673      4.76673      1.58891         0.001006      0.001042      0.000705
     11.12238      4.76673      1.58891         0.001004     -0.001041      0.000710
      4.76673     11.12238      1.58891         0.001006     -0.001042     -0.000705
     11.12238     11.12238      1.58891         0.001004      0.001041     -0.000710
      4.76673      4.76673      7.94456         0.000262     -0.000343     -0.000134
     11.12238      4.76673      7.94456         0.000260      0.000343     -0.000136
      4.76673     11.12238      7.94456         0.000262      0.000343      0.000134
     11.12238     11.12238      7.94456         0.000260     -0.000343      0.000136
      1.58891      1.58891      4.76673        -0.002683      0.001364     -0.000018
      7.94456      1.58891      4.76673         0.000279     -0.000350      0.000001
      1.58891      7.94456      4.76673        -0.000610     -0.000350      0.000001
      7.94456      7.94456      4.76673         0.000081      0.000083     -0.000002
      1.58891      1.58891     11.12238        -0.002683     -0.001364      0.000018
      7.94456      1.58891     11.12238         0.000279      0.000350     -0.000001
      1.58891      7.94456     11.12238        -0.000610      0.000350     -0.000001
      7.94456      7.94456     11.12238         0.000081     -0.000083      0.000002
      4.76673      1.58891      4.76673         0.001006      0.000705      0.001042
     11.12238      1.58891      4.76673         0.001004      0.000710     -0.001041
      4.76673      7.94456      4.76673         0.000262     -0.000134     -0.000343
     11.12238      7.94456      4.76673         0.000260     -0.000136      0.000343
      4.76673      1.58891     11.12238         0.001006     -0.000705     -0.001042
     11.12238      1.58891     11.12238         0.001004     -0.000710      0.001041
      4.76673      7.94456     11.12238         0.000262      0.000134      0.000343
     11.12238      7.94456     11.12238         0.000260      0.000136     -0.000343
      1.58891      4.76673      4.76673        -0.002054     -0.000706     -0.000706
      7.94456      4.76673      4.76673         0.000195      0.000135      0.000135
      1.58891     11.12238      4.76673        -0.002056     -0.000709      0.000709
      7.94456     11.12238      4.76673         0.000194      0.000135     -0.000135
      1.58891      4.76673     11.12238        -0.002056      0.000709     -0.000709
      7.94456      4.76673     11.12238         0.000194     -0.000135      0.000135
      1.58891     11.12238     11.12238        -0.002054      0.000706      0.000706
      7.94456     11.12238     11.12238         0.000195     -0.000135     -0.000135
      4.76673      4.76673      4.76673        -0.000165      0.000095      0.000095
     11.12238      4.76673      4.76673         0.002032     -0.000479     -0.000479
      4.76673     11.12238      4.76673         0.002035     -0.000474      0.000474
     11.12238     11.12238      4.76673        -0.000166      0.000095     -0.000095
      4.76673      4.76673     11.12238         0.002035      0.000474     -0.000474
     11.12238      4.76673     11.12238        -0.000166     -0.000095      0.000095
      4.76673     11.12238     11.12238        -0.000165     -0.000095     -0.000095
     11.12238     11.12238     11.12238         0.002032      0.000479      0.000479
 -----------------------------------------------------------------------------------
    total drift:                                0.000023     -0.000000     -0.000000


--------------------------------------------------------------------------------------------------------



  FREE ENERGIE OF THE ION-ELECTRON SYSTEM (eV)
  ---------------------------------------------------
  free  energy   TOTEN  =      -279.58860056 eV

  energy  without entropy=     -279.58860056  energy(sigma->0) =     -279.58860056
 


--------------------------------------------------------------------------------------------------------


    POTLOK:  cpu time    1.4041: real time    1.4068


--------------------------------------------------------------------------------------------------------


     LOOP+:  cpu time  769.2841: real time  770.6842
    4ORBIT:  cpu time    0.0000: real time    0.0000

 total amount of memory used by VASP MPI-rank0   392398. kBytes
=======================================================================

   base      :      30000. kBytes
   nonl-proj :      36133. kBytes
   fftplans  :      94700. kBytes
   grid      :     169030. kBytes
   one-center:        778. kBytes
   wavefun   :      61757. kBytes
 
  
  
 General timing and accounting informations for this job:
 ========================================================
  
                  Total CPU time used (sec):      775.896
                            User time (sec):      774.484
                          System time (sec):        1.412
                         Elapsed time (sec):      777.399
  
                   Maximum memory used (kb):      600324.
                   Average memory used (kb):           0.
  
                          Minor page faults:       770988
                          Major page faults:            0
                 Voluntary context switches:         1046
