<?xml version="1.0" encoding="ISO-8859-1"?>
<modeling>
 <generator>
  <i name="program" type="string">vasp </i>
  <i name="version" type="string">5.4.4.18Apr17-6-g9f103f2a35  </i>
  <i name="subversion" type="string">(build Apr 28 2017 11:12:57) complex            parallel </i>
  <i name="platform" type="string">LinuxIFC </i>
  <i name="date" type="string">2018 06 27 </i>
  <i name="time" type="string">22:16:30 </i>
 </generator>
 <incar>
  <i type="string" name="PREC">accurate</i>
  <i type="int" name="IALGO">    38</i>
  <i type="int" name="IBRION">    -1</i>
  <i name="EDIFF">      0.00000001</i>
  <i name="ENCUT">    270.00000000</i>
  <i type="logical" name="LREAL"> F  </i>
  <i type="int" name="ISMEAR">     0</i>
  <i name="SIGMA">      0.01000000</i>
  <i type="logical" name="LWAVE"> F  </i>
  <i type="logical" name="LCHARG"> F  </i>
  <v type="int" name="KPOINT_BSE">    -1     0     0     0</v>
 </incar>
 <structure name="primitive_cell" >
  <crystal>
   <varray name="basis" >
    <v>      12.71129245       0.00000000       0.00000000 </v>
    <v>       0.00000000      12.71129245       0.00000000 </v>
    <v>       0.00000000       0.00000000      12.71129245 </v>
   </varray>
   <i name="volume">   2053.85193682 </i>
   <varray name="rec_basis" >
    <v>       0.07867021       0.00000000       0.00000000 </v>
    <v>       0.00000000       0.07867021       0.00000000 </v>
    <v>       0.00000000       0.00000000       0.07867021 </v>
   </varray>
  </crystal>
  <varray name="positions" >
   <v>       0.00000000       0.00000000       0.00000000 </v>
   <v>      -0.12500000       0.12500000       0.12500000 </v>
   <v>       0.12500000      -0.12500000       0.12500000 </v>
   <v>      -0.12500000      -0.12500000       0.12500000 </v>
   <v>       0.12500000       0.12500000      -0.12500000 </v>
   <v>      -0.12500000       0.12500000      -0.12500000 </v>
   <v>       0.12500000      -0.12500000      -0.12500000 </v>
   <v>      -0.12500000      -0.12500000      -0.12500000 </v>
   <v>       0.12578670       0.12500000       0.12500000 </v>
   <v>       0.25000000       0.25000000       0.00000000 </v>
   <v>      -0.25000000       0.25000000       0.00000000 </v>
   <v>       0.25000000      -0.25000000       0.00000000 </v>
   <v>      -0.25000000      -0.25000000       0.00000000 </v>
   <v>       0.25000000       0.00000000       0.25000000 </v>
   <v>      -0.25000000       0.00000000       0.25000000 </v>
   <v>       0.25000000       0.00000000      -0.25000000 </v>
   <v>      -0.25000000       0.00000000      -0.25000000 </v>
   <v>       0.00000000       0.25000000       0.25000000 </v>
   <v>       0.00000000      -0.25000000       0.25000000 </v>
   <v>       0.00000000       0.25000000      -0.25000000 </v>
   <v>       0.00000000      -0.25000000      -0.25000000 </v>
   <v>      -0.37500000       0.12500000       0.12500000 </v>
   <v>       0.12500000      -0.37500000       0.12500000 </v>
   <v>       0.37500000       0.12500000       0.12500000 </v>
   <v>      -0.12500000      -0.37500000       0.12500000 </v>
   <v>       0.12500000       0.37500000       0.12500000 </v>
   <v>      -0.37500000      -0.12500000       0.12500000 </v>
   <v>      -0.12500000       0.37500000       0.12500000 </v>
   <v>       0.37500000      -0.12500000       0.12500000 </v>
   <v>      -0.37500000       0.12500000      -0.12500000 </v>
   <v>       0.12500000      -0.37500000      -0.12500000 </v>
   <v>       0.37500000       0.12500000      -0.12500000 </v>
   <v>      -0.12500000      -0.37500000      -0.12500000 </v>
   <v>       0.12500000       0.37500000      -0.12500000 </v>
   <v>      -0.37500000      -0.12500000      -0.12500000 </v>
   <v>      -0.12500000       0.37500000      -0.12500000 </v>
   <v>       0.37500000      -0.12500000      -0.12500000 </v>
   <v>       0.12500000       0.12500000      -0.37500000 </v>
   <v>      -0.12500000       0.12500000      -0.37500000 </v>
   <v>       0.12500000      -0.12500000      -0.37500000 </v>
   <v>      -0.12500000      -0.12500000      -0.37500000 </v>
   <v>       0.12500000       0.12500000       0.37500000 </v>
   <v>      -0.12500000       0.12500000       0.37500000 </v>
   <v>       0.12500000      -0.12500000       0.37500000 </v>
   <v>      -0.12500000      -0.12500000       0.37500000 </v>
   <v>      -0.50000000       0.00000000       0.00000000 </v>
   <v>       0.00000000      -0.50000000       0.00000000 </v>
   <v>       0.00000000       0.00000000      -0.50000000 </v>
   <v>      -0.37500000      -0.37500000       0.12500000 </v>
   <v>      -0.37500000       0.12500000      -0.37500000 </v>
   <v>       0.12500000      -0.37500000      -0.37500000 </v>
   <v>       0.37500000      -0.37500000       0.12500000 </v>
   <v>       0.37500000       0.12500000      -0.37500000 </v>
   <v>      -0.12500000      -0.37500000      -0.37500000 </v>
   <v>      -0.37500000       0.37500000       0.12500000 </v>
   <v>       0.12500000       0.37500000      -0.37500000 </v>
   <v>      -0.37500000      -0.12500000      -0.37500000 </v>
   <v>       0.37500000       0.37500000       0.12500000 </v>
   <v>      -0.12500000       0.37500000      -0.37500000 </v>
   <v>       0.37500000      -0.12500000      -0.37500000 </v>
   <v>      -0.37500000       0.12500000       0.37500000 </v>
   <v>       0.12500000      -0.37500000       0.37500000 </v>
   <v>      -0.37500000      -0.37500000      -0.12500000 </v>
   <v>       0.37500000       0.12500000       0.37500000 </v>
   <v>      -0.12500000      -0.37500000       0.37500000 </v>
   <v>       0.37500000      -0.37500000      -0.12500000 </v>
   <v>       0.12500000       0.37500000       0.37500000 </v>
   <v>      -0.37500000      -0.12500000       0.37500000 </v>
   <v>      -0.37500000       0.37500000      -0.12500000 </v>
   <v>      -0.12500000       0.37500000       0.37500000 </v>
   <v>       0.37500000      -0.12500000       0.37500000 </v>
   <v>       0.37500000       0.37500000      -0.12500000 </v>
   <v>       0.25000000       0.25000000      -0.50000000 </v>
   <v>      -0.25000000       0.25000000      -0.50000000 </v>
   <v>       0.25000000      -0.25000000      -0.50000000 </v>
   <v>      -0.25000000      -0.25000000      -0.50000000 </v>
   <v>       0.25000000      -0.50000000       0.25000000 </v>
   <v>      -0.25000000      -0.50000000       0.25000000 </v>
   <v>       0.25000000      -0.50000000      -0.25000000 </v>
   <v>      -0.25000000      -0.50000000      -0.25000000 </v>
   <v>      -0.50000000       0.25000000       0.25000000 </v>
   <v>      -0.50000000      -0.25000000       0.25000000 </v>
   <v>      -0.50000000       0.25000000      -0.25000000 </v>
   <v>      -0.50000000      -0.25000000      -0.25000000 </v>
   <v>      -0.37500000      -0.37500000      -0.37500000 </v>
   <v>       0.37500000      -0.37500000      -0.37500000 </v>
   <v>      -0.37500000       0.37500000      -0.37500000 </v>
   <v>       0.37500000       0.37500000      -0.37500000 </v>
   <v>      -0.37500000      -0.37500000       0.37500000 </v>
   <v>       0.37500000      -0.37500000       0.37500000 </v>
   <v>      -0.37500000       0.37500000       0.37500000 </v>
   <v>       0.37500000       0.37500000       0.37500000 </v>
   <v>      -0.50000000      -0.50000000       0.00000000 </v>
   <v>      -0.50000000       0.00000000      -0.50000000 </v>
   <v>       0.00000000      -0.50000000      -0.50000000 </v>
   <v>      -0.50000000      -0.50000000      -0.50000000 </v>
  </varray>
 </structure>
 <varray name="primitive_index" >
  <v type="int" >        1 </v>
  <v type="int" >       42 </v>
  <v type="int" >       51 </v>
  <v type="int" >       60 </v>
  <v type="int" >       69 </v>
  <v type="int" >       78 </v>
  <v type="int" >       87 </v>
  <v type="int" >       96 </v>
  <v type="int" >       33 </v>
  <v type="int" >        9 </v>
  <v type="int" >       10 </v>
  <v type="int" >       11 </v>
  <v type="int" >       12 </v>
  <v type="int" >       17 </v>
  <v type="int" >       18 </v>
  <v type="int" >       21 </v>
  <v type="int" >       22 </v>
  <v type="int" >       25 </v>
  <v type="int" >       27 </v>
  <v type="int" >       29 </v>
  <v type="int" >       31 </v>
  <v type="int" >       34 </v>
  <v type="int" >       35 </v>
  <v type="int" >       41 </v>
  <v type="int" >       44 </v>
  <v type="int" >       49 </v>
  <v type="int" >       52 </v>
  <v type="int" >       58 </v>
  <v type="int" >       59 </v>
  <v type="int" >       70 </v>
  <v type="int" >       71 </v>
  <v type="int" >       77 </v>
  <v type="int" >       80 </v>
  <v type="int" >       85 </v>
  <v type="int" >       88 </v>
  <v type="int" >       94 </v>
  <v type="int" >       95 </v>
  <v type="int" >       37 </v>
  <v type="int" >       46 </v>
  <v type="int" >       55 </v>
  <v type="int" >       64 </v>
  <v type="int" >       65 </v>
  <v type="int" >       74 </v>
  <v type="int" >       83 </v>
  <v type="int" >       92 </v>
  <v type="int" >        2 </v>
  <v type="int" >        3 </v>
  <v type="int" >        5 </v>
  <v type="int" >       36 </v>
  <v type="int" >       38 </v>
  <v type="int" >       39 </v>
  <v type="int" >       43 </v>
  <v type="int" >       45 </v>
  <v type="int" >       48 </v>
  <v type="int" >       50 </v>
  <v type="int" >       53 </v>
  <v type="int" >       56 </v>
  <v type="int" >       57 </v>
  <v type="int" >       62 </v>
  <v type="int" >       63 </v>
  <v type="int" >       66 </v>
  <v type="int" >       67 </v>
  <v type="int" >       72 </v>
  <v type="int" >       73 </v>
  <v type="int" >       76 </v>
  <v type="int" >       79 </v>
  <v type="int" >       81 </v>
  <v type="int" >       84 </v>
  <v type="int" >       86 </v>
  <v type="int" >       90 </v>
  <v type="int" >       91 </v>
  <v type="int" >       93 </v>
  <v type="int" >       13 </v>
  <v type="int" >       14 </v>
  <v type="int" >       15 </v>
  <v type="int" >       16 </v>
  <v type="int" >       19 </v>
  <v type="int" >       20 </v>
  <v type="int" >       23 </v>
  <v type="int" >       24 </v>
  <v type="int" >       26 </v>
  <v type="int" >       28 </v>
  <v type="int" >       30 </v>
  <v type="int" >       32 </v>
  <v type="int" >       40 </v>
  <v type="int" >       47 </v>
  <v type="int" >       54 </v>
  <v type="int" >       61 </v>
  <v type="int" >       68 </v>
  <v type="int" >       75 </v>
  <v type="int" >       82 </v>
  <v type="int" >       89 </v>
  <v type="int" >        4 </v>
  <v type="int" >        6 </v>
  <v type="int" >        7 </v>
  <v type="int" >        8 </v>
 </varray>
 <kpoints>
  <generation param="Gamma">
   <v type="int" name="divisions">       1        1        1 </v>
   <v name="usershift">      0.00000000       0.00000000       0.00000000 </v>
   <v name="genvec1">      1.00000000       0.00000000       0.00000000 </v>
   <v name="genvec2">      0.00000000       1.00000000       0.00000000 </v>
   <v name="genvec3">      0.00000000       0.00000000       1.00000000 </v>
   <v name="shift">      0.00000000       0.00000000       0.00000000 </v>
  </generation>
  <varray name="kpointlist" >
   <v>       0.00000000       0.00000000       0.00000000 </v>
  </varray>
  <varray name="weights" >
   <v>       1.00000000 </v>
  </varray>
 </kpoints>
 <parameters>
  <separator name="general" >
   <i type="string" name="SYSTEM">unknown system</i>
   <i type="logical" name="LCOMPAT"> F  </i>
  </separator>
  <separator name="electronic" >
   <i type="string" name="PREC">accura</i>
   <i name="ENMAX">    270.00000000</i>
   <i name="ENAUG">    454.73400000</i>
   <i name="EDIFF">      0.00000001</i>
   <i type="int" name="IALGO">    38</i>
   <i type="int" name="IWAVPR">    10</i>
   <i type="int" name="NBANDS">   177</i>
   <i name="NELECT">    256.00000000</i>
   <i type="int" name="TURBO">     0</i>
   <i type="int" name="IRESTART">     0</i>
   <i type="int" name="NREBOOT">     0</i>
   <i type="int" name="NMIN">     0</i>
   <i name="EREF">      0.00000000</i>
   <separator name="electronic smearing" >
    <i type="int" name="ISMEAR">     0</i>
    <i name="SIGMA">      0.01000000</i>
    <i name="KSPACING">      0.50000000</i>
    <i type="logical" name="KGAMMA"> T  </i>
   </separator>
   <separator name="electronic projectors" >
    <i type="logical" name="LREAL"> F  </i>
    <v name="ROPT">      0.00000000      0.00000000</v>
    <i type="int" name="LMAXPAW">  -100</i>
    <i type="int" name="LMAXMIX">     2</i>
    <i type="logical" name="NLSPLINE"> F  </i>
   </separator>
   <separator name="electronic startup" >
    <i type="int" name="ISTART">     0</i>
    <i type="int" name="ICHARG">     2</i>
    <i type="int" name="INIWAV">     1</i>
   </separator>
   <separator name="electronic spin" >
    <i type="int" name="ISPIN">     1</i>
    <i type="logical" name="LNONCOLLINEAR"> F  </i>
    <v name="MAGMOM">      1.00000000      1.00000000      1.00000000      1.00000000      1.00000000      1.00000000      1.00000000      1.00000000      1.00000000      1.00000000      1.00000000      1.00000000      1.00000000      1.00000000      1.00000000      1.00000000      1.00000000      1.00000000      1.00000000      1.00000000
      1.00000000      1.00000000      1.00000000      1.00000000      1.00000000      1.00000000      1.00000000      1.00000000      1.00000000      1.00000000      1.00000000      1.00000000      1.00000000      1.00000000      1.00000000      1.00000000      1.00000000      1.00000000      1.00000000      1.00000000
      1.00000000      1.00000000      1.00000000      1.00000000      1.00000000      1.00000000      1.00000000      1.00000000      1.00000000      1.00000000      1.00000000      1.00000000      1.00000000      1.00000000      1.00000000      1.00000000      1.00000000      1.00000000      1.00000000      1.00000000
      1.00000000      1.00000000      1.00000000      1.00000000      1.00000000      1.00000000      1.00000000      1.00000000      1.00000000      1.00000000      1.00000000      1.00000000      1.00000000      1.00000000      1.00000000      1.00000000      1.00000000      1.00000000      1.00000000      1.00000000
      1.00000000      1.00000000      1.00000000      1.00000000      1.00000000      1.00000000      1.00000000      1.00000000      1.00000000      1.00000000      1.00000000      1.00000000      1.00000000      1.00000000      1.00000000      1.00000000</v>
    <i name="NUPDOWN">     -1.00000000</i>
    <i type="logical" name="LSORBIT"> F  </i>
    <v name="SAXIS">      0.00000000      0.00000000      1.00000000</v>
    <i type="logical" name="LSPIRAL"> F  </i>
    <v name="QSPIRAL">      0.00000000      0.00000000      0.00000000</v>
    <i type="logical" name="LZEROZ"> F  </i>
   </separator>
   <separator name="electronic exchange-correlation" >
    <i type="logical" name="LASPH"> F  </i>
    <i type="logical" name="LMETAGGA"> F  </i>
   </separator>
   <separator name="electronic convergence" >
    <i type="int" name="NELM">    60</i>
    <i type="int" name="NELMDL">    -5</i>
    <i type="int" name="NELMIN">     2</i>
    <i name="ENINI">    270.00000000</i>
    <separator name="electronic convergence detail" >
     <i type="logical" name="LDIAG"> T  </i>
     <i type="logical" name="LSUBROT"> F  </i>
     <i name="WEIMIN">      0.00000000</i>
     <i name="EBREAK">      0.00000000</i>
     <i name="DEPER">      0.30000000</i>
     <i type="int" name="NRMM">     4</i>
     <i name="TIME">      0.40000000</i>
    </separator>
   </separator>
   <separator name="electronic mixer" >
    <i name="AMIX">      0.40000000</i>
    <i name="BMIX">      1.00000000</i>
    <i name="AMIN">      0.10000000</i>
    <i name="AMIX_MAG">      1.60000000</i>
    <i name="BMIX_MAG">      1.00000000</i>
    <separator name="electronic mixer details" >
     <i type="int" name="IMIX">     4</i>
     <i type="logical" name="MIXFIRST"> F  </i>
     <i type="int" name="MAXMIX">   -45</i>
     <i name="WC">    100.00000000</i>
     <i type="int" name="INIMIX">     1</i>
     <i type="int" name="MIXPRE">     1</i>
     <i type="int" name="MREMOVE">     5</i>
    </separator>
   </separator>
   <separator name="electronic dipolcorrection" >
    <i type="logical" name="LDIPOL"> F  </i>
    <i type="logical" name="LMONO"> F  </i>
    <i type="int" name="IDIPOL">     0</i>
    <i name="EPSILON">      1.00000000</i>
    <v name="DIPOL">   -100.00000000   -100.00000000   -100.00000000</v>
    <i name="EFIELD">      0.00000000</i>
   </separator>
  </separator>
  <separator name="grids" >
   <i type="int" name="NGX">    70</i>
   <i type="int" name="NGY">    70</i>
   <i type="int" name="NGZ">    70</i>
   <i type="int" name="NGXF">   140</i>
   <i type="int" name="NGYF">   140</i>
   <i type="int" name="NGZF">   140</i>
   <i type="logical" name="ADDGRID"> F  </i>
  </separator>
  <separator name="ionic" >
   <i type="int" name="NSW">     0</i>
   <i type="int" name="IBRION">    -1</i>
   <i type="int" name="MDALGO">     0</i>
   <i type="int" name="ISIF">     2</i>
   <i name="PSTRESS">      0.00000000</i>
   <i name="EDIFFG">      0.00000010</i>
   <i type="int" name="NFREE">     0</i>
   <i name="POTIM">      0.50000000</i>
   <i name="SMASS">     -3.00000000</i>
   <i name="SCALEE">      1.00000000</i>
  </separator>
  <separator name="ionic md" >
   <i name="TEBEG">      0.00010000</i>
   <i name="TEEND">      0.00010000</i>
   <i type="int" name="NBLOCK">     1</i>
   <i type="int" name="KBLOCK">     1</i>
   <i type="int" name="NPACO">   256</i>
   <i name="APACO">     16.00000000</i>
  </separator>
  <separator name="symmetry" >
   <i type="int" name="ISYM">     2</i>
   <i name="SYMPREC">      0.00001000</i>
  </separator>
  <separator name="dos" >
   <i type="int" name="LORBIT">     0</i>
   <v name="RWIGS">     -1.00000000     -1.00000000</v>
   <i type="int" name="NEDOS">   301</i>
   <i name="EMIN">     10.00000000</i>
   <i name="EMAX">    -10.00000000</i>
   <i name="EFERMI">      0.00000000</i>
  </separator>
  <separator name="writing" >
   <i type="int" name="NWRITE">     2</i>
   <i type="logical" name="LWAVE"> F  </i>
   <i type="logical" name="LDOWNSAMPLE"> F  </i>
   <i type="logical" name="LCHARG"> F  </i>
   <i type="logical" name="LPARD"> F  </i>
   <i type="logical" name="LVTOT"> F  </i>
   <i type="logical" name="LVHAR"> F  </i>
   <i type="logical" name="LELF"> F  </i>
   <i type="logical" name="LOPTICS"> F  </i>
   <v name="STM">      0.00000000      0.00000000      0.00000000      0.00000000      0.00000000      0.00000000      0.00000000</v>
  </separator>
  <separator name="performance" >
   <i type="int" name="NPAR">     1</i>
   <i type="int" name="NSIM">     4</i>
   <i type="int" name="NBLK">    -1</i>
   <i type="logical" name="LPLANE"> T  </i>
   <i type="logical" name="LSCALAPACK"> T  </i>
   <i type="logical" name="LSCAAWARE"> F  </i>
   <i type="logical" name="LSCALU"> F  </i>
   <i type="logical" name="LASYNC"> F  </i>
   <i type="logical" name="LORBITALREAL"> F  </i>
  </separator>
  <separator name="miscellaneous" >
   <i type="int" name="IDIOT">     3</i>
   <i type="int" name="ISPECIAL">     0</i>
   <i type="logical" name="LMUSIC"> F  </i>
   <v name="POMASS">     28.08500000     24.30500000</v>
   <v name="DARWINR">      0.00000000      0.00000000</v>
   <v name="DARWINV">      1.00000000      1.00000000</v>
   <i type="logical" name="LCORR"> T  </i>
  </separator>
  <i type="logical" name="GGA_COMPAT"> T  </i>
  <i type="logical" name="LBERRY"> F  </i>
  <i type="int" name="ICORELEVEL">     0</i>
  <i type="logical" name="LDAU"> F  </i>
  <i type="int" name="I_CONSTRAINED_M">     0</i>
  <separator name="electronic exchange-correlation" >
   <i type="string" name="GGA">--</i>
   <i type="int" name="VOSKOWN">     0</i>
   <i type="logical" name="LHFCALC"> F  </i>
   <i type="string" name="PRECFOCK"></i>
   <i type="logical" name="LSYMGRAD"> F  </i>
   <i type="logical" name="LHFONE"> F  </i>
   <i type="logical" name="LRHFCALC"> F  </i>
   <i type="logical" name="LTHOMAS"> F  </i>
   <i type="logical" name="LMODELHF"> F  </i>
   <i name="ENCUT4O">     -1.00000000</i>
   <i type="int" name="EXXOEP">     0</i>
   <i type="int" name="FOURORBIT">     0</i>
   <i name="AEXX">      0.00000000</i>
   <i name="HFALPHA">      0.00000000</i>
   <i name="MCALPHA">      0.00000000</i>
   <i name="ALDAX">      1.00000000</i>
   <i name="AGGAX">      1.00000000</i>
   <i name="ALDAC">      1.00000000</i>
   <i name="AGGAC">      1.00000000</i>
   <i type="int" name="NKREDX">     1</i>
   <i type="int" name="NKREDY">     1</i>
   <i type="int" name="NKREDZ">     1</i>
   <i type="logical" name="SHIFTRED"> F  </i>
   <i type="logical" name="ODDONLY"> F  </i>
   <i type="logical" name="EVENONLY"> F  </i>
   <i type="int" name="LMAXFOCK">     0</i>
   <i type="int" name="NMAXFOCKAE">     0</i>
   <i type="logical" name="LFOCKAEDFT"> F  </i>
   <i name="HFSCREEN">      0.00000000</i>
   <i name="HFSCREENC">      0.00000000</i>
   <i type="int" name="NBANDSGWLOW">     0</i>
  </separator>
  <separator name="vdW DFT" >
   <i type="logical" name="LUSE_VDW"> F  </i>
   <i name="Zab_VDW">     -0.84910000</i>
   <i name="PARAM1">      0.12340000</i>
   <i name="PARAM2">      1.00000000</i>
   <i name="PARAM3">      0.00000000</i>
  </separator>
  <separator name="model GW" >
   <i type="int" name="MODEL_GW">     0</i>
   <i name="MODEL_EPS0">     12.83657461</i>
   <i name="MODEL_ALPHA">      1.00000000</i>
  </separator>
  <separator name="linear response parameters" >
   <i type="logical" name="LEPSILON"> F  </i>
   <i type="logical" name="LRPA"> F  </i>
   <i type="logical" name="LNABLA"> F  </i>
   <i type="logical" name="LVEL"> F  </i>
   <i type="int" name="KINTER">     0</i>
   <i name="CSHIFT">      0.10000000</i>
   <i name="OMEGAMAX">     -1.00000000</i>
   <i name="DEG_THRESHOLD">      0.00200000</i>
   <i name="RTIME">     -0.10000000</i>
   <i name="WPLASMAI">      0.00000000</i>
   <v name="DFIELD">      0.00000000      0.00000000      0.00000000</v>
   <v name="WPLASMA">      0.00000000      0.00000000      0.00000000      0.00000000      0.00000000      0.00000000      0.00000000      0.00000000      0.00000000</v>
  </separator>
  <separator name="orbital magnetization" >
   <i type="logical" name="NUCIND"> F  </i>
   <v name="MAGPOS">      0.00000000      0.00000000      0.00000000</v>
   <i type="logical" name="LNICSALL"> T  </i>
   <i type="logical" name="ORBITALMAG"> F  </i>
   <i type="logical" name="LMAGBLOCH"> F  </i>
   <i type="logical" name="LCHIMAG"> F  </i>
   <i type="logical" name="LGAUGE"> T  </i>
   <i type="int" name="MAGATOM">     0</i>
   <v name="MAGDIPOL">      0.00000000      0.00000000      0.00000000</v>
   <v name="AVECCONST">      0.00000000      0.00000000      0.00000000</v>
  </separator>
  <separator name="response functions" >
   <i type="logical" name="LADDER"> F  </i>
   <i type="logical" name="LRPAFORCE"> F  </i>
   <i type="logical" name="LFXC"> F  </i>
   <i type="logical" name="LHARTREE"> T  </i>
   <i type="int" name="IBSE">     0</i>
   <v type="int" name="KPOINT">    -1     0     0     0</v>
   <i type="logical" name="LTCTE"> F  </i>
   <i type="logical" name="LTETE"> F  </i>
   <i type="logical" name="LTRIPLET"> F  </i>
   <i type="logical" name="LFXCEPS"> F  </i>
   <i type="logical" name="LFXHEG"> F  </i>
   <i type="int" name="NATURALO">     2</i>
   <i type="logical" name="L2ORDER"> F  </i>
   <i type="logical" name="LMP2LT"> F  </i>
   <i type="logical" name="LUSEW"> F  </i>
   <i name="ENCUTGW">     -2.00000000</i>
   <i name="ENCUTGWSOFT">     -2.00000000</i>
   <i name="ENCUTLF">     -1.00000000</i>
   <i type="int" name="LMAXMP2">    -1</i>
   <i name="SCISSOR">      0.00000000</i>
   <i type="int" name="NOMEGA">     0</i>
   <i type="int" name="NOMEGAR">     0</i>
   <i type="int" name="NBANDSGW">    -1</i>
   <i type="int" name="NBANDSO">    -1</i>
   <i type="int" name="NBANDSV">    -1</i>
   <i type="int" name="NELM">     1</i>
   <i type="int" name="NELMHF">     1</i>
   <i type="int" name="DIM">     3</i>
   <i type="int" name="ANTIRES">     0</i>
   <i name="OMEGAMAX">    -30.00000000</i>
   <i name="OMEGAMIN">    -30.00000000</i>
   <i name="OMEGATL">   -200.00000000</i>
   <i type="int" name="OMEGAGRID">   140</i>
   <i name="CSHIFT">     -0.10000000</i>
   <i type="logical" name="SELFENERGY"> F  </i>
   <i type="logical" name="LSPECTRAL"> F  </i>
   <i type="logical" name="LSPECTRALGW"> F  </i>
   <i type="logical" name="LSINGLES"> F  </i>
   <i type="logical" name="LFERMIGW"> F  </i>
   <i type="logical" name="ODDONLYGW"> F  </i>
   <i type="logical" name="EVENONLYGW"> F  </i>
   <i type="int" name="NKREDLFX">     1</i>
   <i type="int" name="NKREDLFY">     1</i>
   <i type="int" name="NKREDLFZ">     1</i>
   <i type="int" name="MAXMEM">  2800</i>
   <i type="int" name="TELESCOPE">     0</i>
   <i type="int" name="TAUPAR">     1</i>
   <i type="int" name="OMEGAPAR">    -1</i>
   <i name="LAMBDA">      1.00000000</i>
  </separator>
  <separator name="External order field" >
   <i name="OFIELD_KAPPA">      0.00000000</i>
   <v name="OFIELD_K">      0.00000000      0.00000000      0.00000000</v>
   <i name="OFIELD_Q6_NEAR">      0.00000000</i>
   <i name="OFIELD_Q6_FAR">      0.00000000</i>
   <i name="OFIELD_A">      0.00000000</i>
  </separator>
 </parameters>
 <atominfo>
  <atoms>      96 </atoms>
  <types>       2 </types>
  <array name="atoms" >
   <dimension dim="1">ion</dimension>
   <field type="string">element</field>
   <field type="int">atomtype</field>
   <set>
    <rc><c>Si</c><c>   1</c></rc>
    <rc><c>Si</c><c>   1</c></rc>
    <rc><c>Si</c><c>   1</c></rc>
    <rc><c>Si</c><c>   1</c></rc>
    <rc><c>Si</c><c>   1</c></rc>
    <rc><c>Si</c><c>   1</c></rc>
    <rc><c>Si</c><c>   1</c></rc>
    <rc><c>Si</c><c>   1</c></rc>
    <rc><c>Si</c><c>   1</c></rc>
    <rc><c>Si</c><c>   1</c></rc>
    <rc><c>Si</c><c>   1</c></rc>
    <rc><c>Si</c><c>   1</c></rc>
    <rc><c>Si</c><c>   1</c></rc>
    <rc><c>Si</c><c>   1</c></rc>
    <rc><c>Si</c><c>   1</c></rc>
    <rc><c>Si</c><c>   1</c></rc>
    <rc><c>Si</c><c>   1</c></rc>
    <rc><c>Si</c><c>   1</c></rc>
    <rc><c>Si</c><c>   1</c></rc>
    <rc><c>Si</c><c>   1</c></rc>
    <rc><c>Si</c><c>   1</c></rc>
    <rc><c>Si</c><c>   1</c></rc>
    <rc><c>Si</c><c>   1</c></rc>
    <rc><c>Si</c><c>   1</c></rc>
    <rc><c>Si</c><c>   1</c></rc>
    <rc><c>Si</c><c>   1</c></rc>
    <rc><c>Si</c><c>   1</c></rc>
    <rc><c>Si</c><c>   1</c></rc>
    <rc><c>Si</c><c>   1</c></rc>
    <rc><c>Si</c><c>   1</c></rc>
    <rc><c>Si</c><c>   1</c></rc>
    <rc><c>Si</c><c>   1</c></rc>
    <rc><c>Mg</c><c>   2</c></rc>
    <rc><c>Mg</c><c>   2</c></rc>
    <rc><c>Mg</c><c>   2</c></rc>
    <rc><c>Mg</c><c>   2</c></rc>
    <rc><c>Mg</c><c>   2</c></rc>
    <rc><c>Mg</c><c>   2</c></rc>
    <rc><c>Mg</c><c>   2</c></rc>
    <rc><c>Mg</c><c>   2</c></rc>
    <rc><c>Mg</c><c>   2</c></rc>
    <rc><c>Mg</c><c>   2</c></rc>
    <rc><c>Mg</c><c>   2</c></rc>
    <rc><c>Mg</c><c>   2</c></rc>
    <rc><c>Mg</c><c>   2</c></rc>
    <rc><c>Mg</c><c>   2</c></rc>
    <rc><c>Mg</c><c>   2</c></rc>
    <rc><c>Mg</c><c>   2</c></rc>
    <rc><c>Mg</c><c>   2</c></rc>
    <rc><c>Mg</c><c>   2</c></rc>
    <rc><c>Mg</c><c>   2</c></rc>
    <rc><c>Mg</c><c>   2</c></rc>
    <rc><c>Mg</c><c>   2</c></rc>
    <rc><c>Mg</c><c>   2</c></rc>
    <rc><c>Mg</c><c>   2</c></rc>
    <rc><c>Mg</c><c>   2</c></rc>
    <rc><c>Mg</c><c>   2</c></rc>
    <rc><c>Mg</c><c>   2</c></rc>
    <rc><c>Mg</c><c>   2</c></rc>
    <rc><c>Mg</c><c>   2</c></rc>
    <rc><c>Mg</c><c>   2</c></rc>
    <rc><c>Mg</c><c>   2</c></rc>
    <rc><c>Mg</c><c>   2</c></rc>
    <rc><c>Mg</c><c>   2</c></rc>
    <rc><c>Mg</c><c>   2</c></rc>
    <rc><c>Mg</c><c>   2</c></rc>
    <rc><c>Mg</c><c>   2</c></rc>
    <rc><c>Mg</c><c>   2</c></rc>
    <rc><c>Mg</c><c>   2</c></rc>
    <rc><c>Mg</c><c>   2</c></rc>
    <rc><c>Mg</c><c>   2</c></rc>
    <rc><c>Mg</c><c>   2</c></rc>
    <rc><c>Mg</c><c>   2</c></rc>
    <rc><c>Mg</c><c>   2</c></rc>
    <rc><c>Mg</c><c>   2</c></rc>
    <rc><c>Mg</c><c>   2</c></rc>
    <rc><c>Mg</c><c>   2</c></rc>
    <rc><c>Mg</c><c>   2</c></rc>
    <rc><c>Mg</c><c>   2</c></rc>
    <rc><c>Mg</c><c>   2</c></rc>
    <rc><c>Mg</c><c>   2</c></rc>
    <rc><c>Mg</c><c>   2</c></rc>
    <rc><c>Mg</c><c>   2</c></rc>
    <rc><c>Mg</c><c>   2</c></rc>
    <rc><c>Mg</c><c>   2</c></rc>
    <rc><c>Mg</c><c>   2</c></rc>
    <rc><c>Mg</c><c>   2</c></rc>
    <rc><c>Mg</c><c>   2</c></rc>
    <rc><c>Mg</c><c>   2</c></rc>
    <rc><c>Mg</c><c>   2</c></rc>
    <rc><c>Mg</c><c>   2</c></rc>
    <rc><c>Mg</c><c>   2</c></rc>
    <rc><c>Mg</c><c>   2</c></rc>
    <rc><c>Mg</c><c>   2</c></rc>
    <rc><c>Mg</c><c>   2</c></rc>
    <rc><c>Mg</c><c>   2</c></rc>
   </set>
  </array>
  <array name="atomtypes" >
   <dimension dim="1">type</dimension>
   <field type="int">atomspertype</field>
   <field type="string">element</field>
   <field>mass</field>
   <field>valence</field>
   <field type="string">pseudopotential</field>
   <set>
    <rc><c>  32</c><c>Si</c><c>     28.08500000</c><c>      4.00000000</c><c>  PAW_PBE Si 05Jan2001                  </c></rc>
    <rc><c>  64</c><c>Mg</c><c>     24.30500000</c><c>      2.00000000</c><c>  PAW_PBE Mg 13Apr2007                  </c></rc>
   </set>
  </array>
 </atominfo>
 <structure name="initialpos" >
  <crystal>
   <varray name="basis" >
    <v>      12.71129245       0.00000000       0.00000000 </v>
    <v>       0.00000000      12.71129245       0.00000000 </v>
    <v>       0.00000000       0.00000000      12.71129245 </v>
   </varray>
   <i name="volume">   2053.85193682 </i>
   <varray name="rec_basis" >
    <v>       0.07867021       0.00000000       0.00000000 </v>
    <v>       0.00000000       0.07867021       0.00000000 </v>
    <v>       0.00000000       0.00000000       0.07867021 </v>
   </varray>
  </crystal>
  <varray name="positions" >
   <v>       0.00000000       0.00000000       0.00000000 </v>
   <v>       0.50000000       0.00000000       0.00000000 </v>
   <v>       0.00000000       0.50000000       0.00000000 </v>
   <v>       0.50000000       0.50000000       0.00000000 </v>
   <v>       0.00000000       0.00000000       0.50000000 </v>
   <v>       0.50000000       0.00000000       0.50000000 </v>
   <v>       0.00000000       0.50000000       0.50000000 </v>
   <v>       0.50000000       0.50000000       0.50000000 </v>
   <v>       0.25000000       0.25000000       0.00000000 </v>
   <v>       0.75000000       0.25000000       0.00000000 </v>
   <v>       0.25000000       0.75000000       0.00000000 </v>
   <v>       0.75000000       0.75000000       0.00000000 </v>
   <v>       0.25000000       0.25000000       0.50000000 </v>
   <v>       0.75000000       0.25000000       0.50000000 </v>
   <v>       0.25000000       0.75000000       0.50000000 </v>
   <v>       0.75000000       0.75000000       0.50000000 </v>
   <v>       0.25000000       0.00000000       0.25000000 </v>
   <v>       0.75000000       0.00000000       0.25000000 </v>
   <v>       0.25000000       0.50000000       0.25000000 </v>
   <v>       0.75000000       0.50000000       0.25000000 </v>
   <v>       0.25000000       0.00000000       0.75000000 </v>
   <v>       0.75000000       0.00000000       0.75000000 </v>
   <v>       0.25000000       0.50000000       0.75000000 </v>
   <v>       0.75000000       0.50000000       0.75000000 </v>
   <v>       0.00000000       0.25000000       0.25000000 </v>
   <v>       0.50000000       0.25000000       0.25000000 </v>
   <v>       0.00000000       0.75000000       0.25000000 </v>
   <v>       0.50000000       0.75000000       0.25000000 </v>
   <v>       0.00000000       0.25000000       0.75000000 </v>
   <v>       0.50000000       0.25000000       0.75000000 </v>
   <v>       0.00000000       0.75000000       0.75000000 </v>
   <v>       0.50000000       0.75000000       0.75000000 </v>
   <v>       0.12578670       0.12500000       0.12500000 </v>
   <v>       0.62500000       0.12500000       0.12500000 </v>
   <v>       0.12500000       0.62500000       0.12500000 </v>
   <v>       0.62500000       0.62500000       0.12500000 </v>
   <v>       0.12500000       0.12500000       0.62500000 </v>
   <v>       0.62500000       0.12500000       0.62500000 </v>
   <v>       0.12500000       0.62500000       0.62500000 </v>
   <v>       0.62500000       0.62500000       0.62500000 </v>
   <v>       0.37500000       0.12500000       0.12500000 </v>
   <v>       0.87500000       0.12500000       0.12500000 </v>
   <v>       0.37500000       0.62500000       0.12500000 </v>
   <v>       0.87500000       0.62500000       0.12500000 </v>
   <v>       0.37500000       0.12500000       0.62500000 </v>
   <v>       0.87500000       0.12500000       0.62500000 </v>
   <v>       0.37500000       0.62500000       0.62500000 </v>
   <v>       0.87500000       0.62500000       0.62500000 </v>
   <v>       0.12500000       0.37500000       0.12500000 </v>
   <v>       0.62500000       0.37500000       0.12500000 </v>
   <v>       0.12500000       0.87500000       0.12500000 </v>
   <v>       0.62500000       0.87500000       0.12500000 </v>
   <v>       0.12500000       0.37500000       0.62500000 </v>
   <v>       0.62500000       0.37500000       0.62500000 </v>
   <v>       0.12500000       0.87500000       0.62500000 </v>
   <v>       0.62500000       0.87500000       0.62500000 </v>
   <v>       0.37500000       0.37500000       0.12500000 </v>
   <v>       0.87500000       0.37500000       0.12500000 </v>
   <v>       0.37500000       0.87500000       0.12500000 </v>
   <v>       0.87500000       0.87500000       0.12500000 </v>
   <v>       0.37500000       0.37500000       0.62500000 </v>
   <v>       0.87500000       0.37500000       0.62500000 </v>
   <v>       0.37500000       0.87500000       0.62500000 </v>
   <v>       0.87500000       0.87500000       0.62500000 </v>
   <v>       0.12500000       0.12500000       0.37500000 </v>
   <v>       0.62500000       0.12500000       0.37500000 </v>
   <v>       0.12500000       0.62500000       0.37500000 </v>
   <v>       0.62500000       0.62500000       0.37500000 </v>
   <v>       0.12500000       0.12500000       0.87500000 </v>
   <v>       0.62500000       0.12500000       0.87500000 </v>
   <v>       0.12500000       0.62500000       0.87500000 </v>
   <v>       0.62500000       0.62500000       0.87500000 </v>
   <v>       0.37500000       0.12500000       0.37500000 </v>
   <v>       0.87500000       0.12500000       0.37500000 </v>
   <v>       0.37500000       0.62500000       0.37500000 </v>
   <v>       0.87500000       0.62500000       0.37500000 </v>
   <v>       0.37500000       0.12500000       0.87500000 </v>
   <v>       0.87500000       0.12500000       0.87500000 </v>
   <v>       0.37500000       0.62500000       0.87500000 </v>
   <v>       0.87500000       0.62500000       0.87500000 </v>
   <v>       0.12500000       0.37500000       0.37500000 </v>
   <v>       0.62500000       0.37500000       0.37500000 </v>
   <v>       0.12500000       0.87500000       0.37500000 </v>
   <v>       0.62500000       0.87500000       0.37500000 </v>
   <v>       0.12500000       0.37500000       0.87500000 </v>
   <v>       0.62500000       0.37500000       0.87500000 </v>
   <v>       0.12500000       0.87500000       0.87500000 </v>
   <v>       0.62500000       0.87500000       0.87500000 </v>
   <v>       0.37500000       0.37500000       0.37500000 </v>
   <v>       0.87500000       0.37500000       0.37500000 </v>
   <v>       0.37500000       0.87500000       0.37500000 </v>
   <v>       0.87500000       0.87500000       0.37500000 </v>
   <v>       0.37500000       0.37500000       0.87500000 </v>
   <v>       0.87500000       0.37500000       0.87500000 </v>
   <v>       0.37500000       0.87500000       0.87500000 </v>
   <v>       0.87500000       0.87500000       0.87500000 </v>
  </varray>
 </structure>
 <calculation>
  <scstep>
   <time name="dav">   26.17   26.23</time>
   <time name="total">   27.58   27.64</time>
   <energy>
    <i name="alphaZ">    213.07712613 </i>
    <i name="ewald">  -5235.19901026 </i>
    <i name="hartreedc">   -333.86714384 </i>
    <i name="XCdc">  -3430.69745701 </i>
    <i name="pawpsdc">   6999.59008484 </i>
    <i name="pawaedc">  -3117.38992839 </i>
    <i name="eentropy">     -0.00000097 </i>
    <i name="bandstr">    443.62599575 </i>
    <i name="atom">   4772.36960577 </i>
    <i name="e_fr_energy">    311.50927203 </i>
    <i name="e_wo_entrp">    311.50927300 </i>
    <i name="e_0_energy">    311.50927252 </i>
   </energy>
  </scstep>
  <scstep>
   <time name="dav">   29.85   29.90</time>
   <time name="total">   29.85   29.90</time>
   <energy>
    <i name="e_fr_energy">   -254.53136518 </i>
    <i name="e_wo_entrp">   -254.53136518 </i>
    <i name="e_0_energy">   -254.53136518 </i>
   </energy>
  </scstep>
  <scstep>
   <time name="dav">   30.05   30.11</time>
   <time name="total">   30.06   30.11</time>
   <energy>
    <i name="e_fr_energy">   -298.42478735 </i>
    <i name="e_wo_entrp">   -298.42478735 </i>
    <i name="e_0_energy">   -298.42478735 </i>
   </energy>
  </scstep>
  <scstep>
   <time name="dav">   28.74   28.79</time>
   <time name="total">   28.73   28.79</time>
   <energy>
    <i name="e_fr_energy">   -299.37013418 </i>
    <i name="e_wo_entrp">   -299.37013418 </i>
    <i name="e_0_energy">   -299.37013418 </i>
   </energy>
  </scstep>
  <scstep>
   <time name="dav">   30.06   30.11</time>
   <time name="total">   30.88   30.93</time>
   <energy>
    <i name="e_fr_energy">   -299.39690090 </i>
    <i name="e_wo_entrp">   -299.39690090 </i>
    <i name="e_0_energy">   -299.39690090 </i>
   </energy>
  </scstep>
  <scstep>
   <time name="dav">   26.06   26.11</time>
   <time name="total">   28.27   28.32</time>
   <energy>
    <i name="e_fr_energy">   -282.07903275 </i>
    <i name="e_wo_entrp">   -282.07903275 </i>
    <i name="e_0_energy">   -282.07903275 </i>
   </energy>
  </scstep>
  <scstep>
   <time name="dav">   27.32   27.37</time>
   <time name="total">   29.53   29.59</time>
   <energy>
    <i name="e_fr_energy">   -279.57737213 </i>
    <i name="e_wo_entrp">   -279.57737213 </i>
    <i name="e_0_energy">   -279.57737213 </i>
   </energy>
  </scstep>
  <scstep>
   <time name="dav">   26.44   26.49</time>
   <time name="total">   28.65   28.70</time>
   <energy>
    <i name="e_fr_energy">   -279.58850178 </i>
    <i name="e_wo_entrp">   -279.58850178 </i>
    <i name="e_0_energy">   -279.58850178 </i>
   </energy>
  </scstep>
  <scstep>
   <time name="dav">   29.64   29.69</time>
   <time name="total">   31.85   31.91</time>
   <energy>
    <i name="e_fr_energy">   -279.58691255 </i>
    <i name="e_wo_entrp">   -279.58691255 </i>
    <i name="e_0_energy">   -279.58691255 </i>
   </energy>
  </scstep>
  <scstep>
   <time name="dav">   27.82   27.87</time>
   <time name="total">   30.03   30.09</time>
   <energy>
    <i name="e_fr_energy">   -279.58788534 </i>
    <i name="e_wo_entrp">   -279.58788534 </i>
    <i name="e_0_energy">   -279.58788534 </i>
   </energy>
  </scstep>
  <scstep>
   <time name="dav">   26.87   26.92</time>
   <time name="total">   29.06   29.11</time>
   <energy>
    <i name="e_fr_energy">   -279.58904902 </i>
    <i name="e_wo_entrp">   -279.58904902 </i>
    <i name="e_0_energy">   -279.58904902 </i>
   </energy>
  </scstep>
  <scstep>
   <time name="dav">   27.88   27.92</time>
   <time name="total">   30.07   30.12</time>
   <energy>
    <i name="e_fr_energy">   -279.58883712 </i>
    <i name="e_wo_entrp">   -279.58883712 </i>
    <i name="e_0_energy">   -279.58883712 </i>
   </energy>
  </scstep>
  <scstep>
   <time name="dav">   27.31   27.36</time>
   <time name="total">   29.50   29.55</time>
   <energy>
    <i name="e_fr_energy">   -279.58859494 </i>
    <i name="e_wo_entrp">   -279.58859494 </i>
    <i name="e_0_energy">   -279.58859494 </i>
   </energy>
  </scstep>
  <scstep>
   <time name="dav">   29.75   29.80</time>
   <time name="total">   31.95   32.00</time>
   <energy>
    <i name="e_fr_energy">   -279.58860776 </i>
    <i name="e_wo_entrp">   -279.58860776 </i>
    <i name="e_0_energy">   -279.58860776 </i>
   </energy>
  </scstep>
  <scstep>
   <time name="dav">   28.93   28.97</time>
   <time name="total">   31.12   31.18</time>
   <energy>
    <i name="e_fr_energy">   -279.58860281 </i>
    <i name="e_wo_entrp">   -279.58860281 </i>
    <i name="e_0_energy">   -279.58860281 </i>
   </energy>
  </scstep>
  <scstep>
   <time name="dav">   28.65   28.70</time>
   <time name="total">   30.89   30.95</time>
   <energy>
    <i name="e_fr_energy">   -279.58859850 </i>
    <i name="e_wo_entrp">   -279.58859850 </i>
    <i name="e_0_energy">   -279.58859850 </i>
   </energy>
  </scstep>
  <scstep>
   <time name="dav">   28.96   29.01</time>
   <time name="total">   31.19   31.24</time>
   <energy>
    <i name="e_fr_energy">   -279.58859958 </i>
    <i name="e_wo_entrp">   -279.58859958 </i>
    <i name="e_0_energy">   -279.58859958 </i>
   </energy>
  </scstep>
  <scstep>
   <time name="dav">   29.58   29.63</time>
   <time name="total">   31.82   31.87</time>
   <energy>
    <i name="e_fr_energy">   -279.58859974 </i>
    <i name="e_wo_entrp">   -279.58859974 </i>
    <i name="e_0_energy">   -279.58859974 </i>
   </energy>
  </scstep>
  <scstep>
   <time name="dav">   28.48   28.53</time>
   <time name="total">   30.72   30.77</time>
   <energy>
    <i name="e_fr_energy">   -279.58860040 </i>
    <i name="e_wo_entrp">   -279.58860040 </i>
    <i name="e_0_energy">   -279.58860040 </i>
   </energy>
  </scstep>
  <scstep>
   <time name="dav">   23.55   23.59</time>
   <time name="total">   25.79   25.84</time>
   <energy>
    <i name="e_fr_energy">   -279.58860056 </i>
    <i name="e_wo_entrp">   -279.58860056 </i>
    <i name="e_0_energy">   -279.58860056 </i>
   </energy>
  </scstep>
  <scstep>
   <time name="dav">   19.11   19.14</time>
   <time name="total">   21.32   21.36</time>
   <energy>
    <i name="e_fr_energy">   -279.58860060 </i>
    <i name="e_wo_entrp">   -279.58860060 </i>
    <i name="e_0_energy">   -279.58860060 </i>
   </energy>
  </scstep>
  <scstep>
   <time name="dav">   19.11   19.15</time>
   <time name="total">   21.33   21.38</time>
   <energy>
    <i name="e_fr_energy">   -279.58860059 </i>
    <i name="e_wo_entrp">   -279.58860059 </i>
    <i name="e_0_energy">   -279.58860059 </i>
   </energy>
  </scstep>
  <scstep>
   <time name="dav">   19.11   19.14</time>
   <time name="total">   21.33   21.37</time>
   <energy>
    <i name="e_fr_energy">   -279.58860057 </i>
    <i name="e_wo_entrp">   -279.58860057 </i>
    <i name="e_0_energy">   -279.58860057 </i>
   </energy>
  </scstep>
  <scstep>
   <time name="dav">   19.11   19.14</time>
   <time name="total">   21.33   21.37</time>
   <energy>
    <i name="e_fr_energy">   -279.58860056 </i>
    <i name="e_wo_entrp">   -279.58860056 </i>
    <i name="e_0_energy">   -279.58860056 </i>
   </energy>
  </scstep>
  <scstep>
   <time name="dav">   19.11   19.14</time>
   <time name="total">   20.52   20.55</time>
   <energy>
    <i name="alphaZ">    213.07712613 </i>
    <i name="ewald">  -5235.19901026 </i>
    <i name="hartreedc">   -488.82455361 </i>
    <i name="XCdc">  -3402.55362093 </i>
    <i name="pawpsdc">  17885.28968116 </i>
    <i name="pawaedc"> -14007.56301335 </i>
    <i name="eentropy">     -0.00000000 </i>
    <i name="bandstr">    -16.18481546 </i>
    <i name="atom">   4772.36960577 </i>
    <i name="e_fr_energy">   -279.58860056 </i>
    <i name="e_wo_entrp">   -279.58860056 </i>
    <i name="e_0_energy">   -279.58860056 </i>
   </energy>
  </scstep>
  <structure>
   <crystal>
    <varray name="basis" >
     <v>      12.71129245       0.00000000       0.00000000 </v>
     <v>       0.00000000      12.71129245       0.00000000 </v>
     <v>       0.00000000       0.00000000      12.71129245 </v>
    </varray>
    <i name="volume">   2053.85193682 </i>
    <varray name="rec_basis" >
     <v>       0.07867021       0.00000000       0.00000000 </v>
     <v>       0.00000000       0.07867021       0.00000000 </v>
     <v>       0.00000000       0.00000000       0.07867021 </v>
    </varray>
   </crystal>
   <varray name="positions" >
    <v>       0.00000000       0.00000000       0.00000000 </v>
    <v>       0.50000000       0.00000000       0.00000000 </v>
    <v>       0.00000000       0.50000000       0.00000000 </v>
    <v>       0.50000000       0.50000000       0.00000000 </v>
    <v>       0.00000000       0.00000000       0.50000000 </v>
    <v>       0.50000000       0.00000000       0.50000000 </v>
    <v>       0.00000000       0.50000000       0.50000000 </v>
    <v>       0.50000000       0.50000000       0.50000000 </v>
    <v>       0.25000000       0.25000000       0.00000000 </v>
    <v>       0.75000000       0.25000000       0.00000000 </v>
    <v>       0.25000000       0.75000000       0.00000000 </v>
    <v>       0.75000000       0.75000000       0.00000000 </v>
    <v>       0.25000000       0.25000000       0.50000000 </v>
    <v>       0.75000000       0.25000000       0.50000000 </v>
    <v>       0.25000000       0.75000000       0.50000000 </v>
    <v>       0.75000000       0.75000000       0.50000000 </v>
    <v>       0.25000000       0.00000000       0.25000000 </v>
    <v>       0.75000000       0.00000000       0.25000000 </v>
    <v>       0.25000000       0.50000000       0.25000000 </v>
    <v>       0.75000000       0.50000000       0.25000000 </v>
    <v>       0.25000000       0.00000000       0.75000000 </v>
    <v>       0.75000000       0.00000000       0.75000000 </v>
    <v>       0.25000000       0.50000000       0.75000000 </v>
    <v>       0.75000000       0.50000000       0.75000000 </v>
    <v>       0.00000000       0.25000000       0.25000000 </v>
    <v>       0.50000000       0.25000000       0.25000000 </v>
    <v>       0.00000000       0.75000000       0.25000000 </v>
    <v>       0.50000000       0.75000000       0.25000000 </v>
    <v>       0.00000000       0.25000000       0.75000000 </v>
    <v>       0.50000000       0.25000000       0.75000000 </v>
    <v>       0.00000000       0.75000000       0.75000000 </v>
    <v>       0.50000000       0.75000000       0.75000000 </v>
    <v>       0.12578670       0.12500000       0.12500000 </v>
    <v>       0.62500000       0.12500000       0.12500000 </v>
    <v>       0.12500000       0.62500000       0.12500000 </v>
    <v>       0.62500000       0.62500000       0.12500000 </v>
    <v>       0.12500000       0.12500000       0.62500000 </v>
    <v>       0.62500000       0.12500000       0.62500000 </v>
    <v>       0.12500000       0.62500000       0.62500000 </v>
    <v>       0.62500000       0.62500000       0.62500000 </v>
    <v>       0.37500000       0.12500000       0.12500000 </v>
    <v>       0.87500000       0.12500000       0.12500000 </v>
    <v>       0.37500000       0.62500000       0.12500000 </v>
    <v>       0.87500000       0.62500000       0.12500000 </v>
    <v>       0.37500000       0.12500000       0.62500000 </v>
    <v>       0.87500000       0.12500000       0.62500000 </v>
    <v>       0.37500000       0.62500000       0.62500000 </v>
    <v>       0.87500000       0.62500000       0.62500000 </v>
    <v>       0.12500000       0.37500000       0.12500000 </v>
    <v>       0.62500000       0.37500000       0.12500000 </v>
    <v>       0.12500000       0.87500000       0.12500000 </v>
    <v>       0.62500000       0.87500000       0.12500000 </v>
    <v>       0.12500000       0.37500000       0.62500000 </v>
    <v>       0.62500000       0.37500000       0.62500000 </v>
    <v>       0.12500000       0.87500000       0.62500000 </v>
    <v>       0.62500000       0.87500000       0.62500000 </v>
    <v>       0.37500000       0.37500000       0.12500000 </v>
    <v>       0.87500000       0.37500000       0.12500000 </v>
    <v>       0.37500000       0.87500000       0.12500000 </v>
    <v>       0.87500000       0.87500000       0.12500000 </v>
    <v>       0.37500000       0.37500000       0.62500000 </v>
    <v>       0.87500000       0.37500000       0.62500000 </v>
    <v>       0.37500000       0.87500000       0.62500000 </v>
    <v>       0.87500000       0.87500000       0.62500000 </v>
    <v>       0.12500000       0.12500000       0.37500000 </v>
    <v>       0.62500000       0.12500000       0.37500000 </v>
    <v>       0.12500000       0.62500000       0.37500000 </v>
    <v>       0.62500000       0.62500000       0.37500000 </v>
    <v>       0.12500000       0.12500000       0.87500000 </v>
    <v>       0.62500000       0.12500000       0.87500000 </v>
    <v>       0.12500000       0.62500000       0.87500000 </v>
    <v>       0.62500000       0.62500000       0.87500000 </v>
    <v>       0.37500000       0.12500000       0.37500000 </v>
    <v>       0.87500000       0.12500000       0.37500000 </v>
    <v>       0.37500000       0.62500000       0.37500000 </v>
    <v>       0.87500000       0.62500000       0.37500000 </v>
    <v>       0.37500000       0.12500000       0.87500000 </v>
    <v>       0.87500000       0.12500000       0.87500000 </v>
    <v>       0.37500000       0.62500000       0.87500000 </v>
    <v>       0.87500000       0.62500000       0.87500000 </v>
    <v>       0.12500000       0.37500000       0.37500000 </v>
    <v>       0.62500000       0.37500000       0.37500000 </v>
    <v>       0.12500000       0.87500000       0.37500000 </v>
    <v>       0.62500000       0.87500000       0.37500000 </v>
    <v>       0.12500000       0.37500000       0.87500000 </v>
    <v>       0.62500000       0.37500000       0.87500000 </v>
    <v>       0.12500000       0.87500000       0.87500000 </v>
    <v>       0.62500000       0.87500000       0.87500000 </v>
    <v>       0.37500000       0.37500000       0.37500000 </v>
    <v>       0.87500000       0.37500000       0.37500000 </v>
    <v>       0.37500000       0.87500000       0.37500000 </v>
    <v>       0.87500000       0.87500000       0.37500000 </v>
    <v>       0.37500000       0.37500000       0.87500000 </v>
    <v>       0.87500000       0.37500000       0.87500000 </v>
    <v>       0.37500000       0.87500000       0.87500000 </v>
    <v>       0.87500000       0.87500000       0.87500000 </v>
   </varray>
  </structure>
  <varray name="forces" >
   <v>       0.00650998       0.00373501       0.00373501 </v>
   <v>      -0.00069602       0.00023866       0.00023866 </v>
   <v>       0.00061488      -0.00007496      -0.00044975 </v>
   <v>      -0.00060789      -0.00039677      -0.00016804 </v>
   <v>       0.00061488      -0.00044975      -0.00007496 </v>
   <v>      -0.00060789      -0.00016804      -0.00039677 </v>
   <v>       0.00027610       0.00062549       0.00062549 </v>
   <v>      -0.00021708      -0.00000788      -0.00000788 </v>
   <v>       0.00662728       0.00387704      -0.00387704 </v>
   <v>      -0.00069596       0.00023704      -0.00023704 </v>
   <v>       0.00061026      -0.00007472       0.00045307 </v>
   <v>      -0.00060944      -0.00040405       0.00017346 </v>
   <v>       0.00061026      -0.00045307       0.00007472 </v>
   <v>      -0.00060944      -0.00017346       0.00040405 </v>
   <v>       0.00027248       0.00062320      -0.00062320 </v>
   <v>      -0.00021709      -0.00001093       0.00001093 </v>
   <v>       0.00662728      -0.00387704       0.00387704 </v>
   <v>      -0.00069596      -0.00023704       0.00023704 </v>
   <v>       0.00061026       0.00007472      -0.00045307 </v>
   <v>      -0.00060944       0.00040405      -0.00017346 </v>
   <v>       0.00061026       0.00045307      -0.00007472 </v>
   <v>      -0.00060944       0.00017346      -0.00040405 </v>
   <v>       0.00027248      -0.00062320       0.00062320 </v>
   <v>      -0.00021709       0.00001093      -0.00001093 </v>
   <v>       0.00650998      -0.00373501      -0.00373501 </v>
   <v>      -0.00069602      -0.00023866      -0.00023866 </v>
   <v>       0.00061488       0.00007496       0.00044975 </v>
   <v>      -0.00060789       0.00039677       0.00016804 </v>
   <v>       0.00061488       0.00044975       0.00007496 </v>
   <v>      -0.00060789       0.00016804       0.00039677 </v>
   <v>       0.00027610      -0.00062549      -0.00062549 </v>
   <v>      -0.00021708       0.00000788       0.00000788 </v>
   <v>      -0.04298548      -0.00000000       0.00000000 </v>
   <v>       0.00050017      -0.00000000       0.00000000 </v>
   <v>      -0.00006346      -0.00000000       0.00000000 </v>
   <v>       0.00005005      -0.00000000       0.00000000 </v>
   <v>      -0.00006346      -0.00000000       0.00000000 </v>
   <v>       0.00005005      -0.00000000       0.00000000 </v>
   <v>      -0.00164071      -0.00000000       0.00000000 </v>
   <v>       0.00018257      -0.00000000       0.00000000 </v>
   <v>       0.01027288      -0.00000000       0.00000000 </v>
   <v>       0.01001871      -0.00000000       0.00000000 </v>
   <v>       0.00001704      -0.00000000       0.00000000 </v>
   <v>       0.00001357      -0.00000000       0.00000000 </v>
   <v>       0.00001704      -0.00000000       0.00000000 </v>
   <v>       0.00001357      -0.00000000       0.00000000 </v>
   <v>       0.00071933      -0.00000000       0.00000000 </v>
   <v>       0.00071894      -0.00000000       0.00000000 </v>
   <v>      -0.00268303      -0.00001807       0.00136432 </v>
   <v>       0.00027885       0.00000136      -0.00035045 </v>
   <v>      -0.00268303       0.00001807      -0.00136432 </v>
   <v>       0.00027885      -0.00000136       0.00035045 </v>
   <v>      -0.00060958       0.00000077      -0.00035043 </v>
   <v>       0.00008133      -0.00000170       0.00008259 </v>
   <v>      -0.00060958      -0.00000077       0.00035043 </v>
   <v>       0.00008133       0.00000170      -0.00008259 </v>
   <v>       0.00100601       0.00104236       0.00070485 </v>
   <v>       0.00100381      -0.00104119       0.00070974 </v>
   <v>       0.00100601      -0.00104236      -0.00070485 </v>
   <v>       0.00100381       0.00104119      -0.00070974 </v>
   <v>       0.00026179      -0.00034255      -0.00013448 </v>
   <v>       0.00026011       0.00034300      -0.00013591 </v>
   <v>       0.00026179       0.00034255       0.00013448 </v>
   <v>       0.00026011      -0.00034300       0.00013591 </v>
   <v>      -0.00268303       0.00136432      -0.00001807 </v>
   <v>       0.00027885      -0.00035045       0.00000136 </v>
   <v>      -0.00060958      -0.00035043       0.00000077 </v>
   <v>       0.00008133       0.00008259      -0.00000170 </v>
   <v>      -0.00268303      -0.00136432       0.00001807 </v>
   <v>       0.00027885       0.00035045      -0.00000136 </v>
   <v>      -0.00060958       0.00035043      -0.00000077 </v>
   <v>       0.00008133      -0.00008259       0.00000170 </v>
   <v>       0.00100601       0.00070485       0.00104236 </v>
   <v>       0.00100381       0.00070974      -0.00104119 </v>
   <v>       0.00026179      -0.00013448      -0.00034255 </v>
   <v>       0.00026011      -0.00013591       0.00034300 </v>
   <v>       0.00100601      -0.00070485      -0.00104236 </v>
   <v>       0.00100381      -0.00070974       0.00104119 </v>
   <v>       0.00026179       0.00013448       0.00034255 </v>
   <v>       0.00026011       0.00013591      -0.00034300 </v>
   <v>      -0.00205401      -0.00070604      -0.00070604 </v>
   <v>       0.00019535       0.00013532       0.00013532 </v>
   <v>      -0.00205633      -0.00070855       0.00070855 </v>
   <v>       0.00019414       0.00013506      -0.00013506 </v>
   <v>      -0.00205633       0.00070855      -0.00070855 </v>
   <v>       0.00019414      -0.00013506       0.00013506 </v>
   <v>      -0.00205401       0.00070604       0.00070604 </v>
   <v>       0.00019535      -0.00013532      -0.00013532 </v>
   <v>      -0.00016492       0.00009451       0.00009451 </v>
   <v>       0.00203250      -0.00047894      -0.00047894 </v>
   <v>       0.00203528      -0.00047361       0.00047361 </v>
   <v>      -0.00016633       0.00009458      -0.00009458 </v>
   <v>       0.00203528       0.00047361      -0.00047361 </v>
   <v>      -0.00016633      -0.00009458       0.00009458 </v>
   <v>      -0.00016492      -0.00009451      -0.00009451 </v>
   <v>       0.00203250       0.00047894       0.00047894 </v>
  </varray>
  <varray name="stress" >
   <v>      -0.08928124       0.00000000       0.00000000 </v>
   <v>       0.00000000      -0.08966123      -0.01057858 </v>
   <v>       0.00000000      -0.01057858      -0.08966123 </v>
  </varray>
  <energy>
   <i name="e_fr_energy">   -279.58860056 </i>
   <i name="e_wo_entrp">   -279.58860056 </i>
   <i name="e_0_energy">     -0.00000000 </i>
  </energy>
  <time name="totalsc">  769.28  770.68</time>
  <eigenvalues>
   <array>
    <dimension dim="1">band</dimension>
    <dimension dim="2">kpoint</dimension>
    <dimension dim="3">spin</dimension>
    <field>eigene</field>
    <field>occ</field>
    <set>
     <set comment="spin 1">
      <set comment="kpoint 1">
       <r>   -5.4768    1.0000 </r>
       <r>   -4.7514    1.0000 </r>
       <r>   -4.7509    1.0000 </r>
       <r>   -4.7504    1.0000 </r>
       <r>   -4.7504    1.0000 </r>
       <r>   -4.7499    1.0000 </r>
       <r>   -4.7494    1.0000 </r>
       <r>   -4.1727    1.0000 </r>
       <r>   -4.1722    1.0000 </r>
       <r>   -4.1708    1.0000 </r>
       <r>   -4.1708    1.0000 </r>
       <r>   -4.1708    1.0000 </r>
       <r>   -4.1708    1.0000 </r>
       <r>   -4.1707    1.0000 </r>
       <r>   -4.1707    1.0000 </r>
       <r>   -4.1707    1.0000 </r>
       <r>   -4.1707    1.0000 </r>
       <r>   -4.1693    1.0000 </r>
       <r>   -4.1688    1.0000 </r>
       <r>   -4.0419    1.0000 </r>
       <r>   -4.0418    1.0000 </r>
       <r>   -4.0408    1.0000 </r>
       <r>   -4.0406    1.0000 </r>
       <r>   -3.4790    1.0000 </r>
       <r>   -3.4784    1.0000 </r>
       <r>   -3.4779    1.0000 </r>
       <r>   -3.4303    1.0000 </r>
       <r>   -3.4292    1.0000 </r>
       <r>   -3.4292    1.0000 </r>
       <r>   -3.4292    1.0000 </r>
       <r>   -3.4291    1.0000 </r>
       <r>   -3.4280    1.0000 </r>
       <r>   -1.1475    1.0000 </r>
       <r>   -1.1472    1.0000 </r>
       <r>   -1.1465    1.0000 </r>
       <r>   -1.1462    1.0000 </r>
       <r>   -0.8199    1.0000 </r>
       <r>   -0.8199    1.0000 </r>
       <r>   -0.8199    1.0000 </r>
       <r>    0.0126    1.0000 </r>
       <r>    0.0137    1.0000 </r>
       <r>    0.0139    1.0000 </r>
       <r>    0.0140    1.0000 </r>
       <r>    0.0142    1.0000 </r>
       <r>    0.0142    1.0000 </r>
       <r>    0.0142    1.0000 </r>
       <r>    0.0142    1.0000 </r>
       <r>    0.0143    1.0000 </r>
       <r>    0.0145    1.0000 </r>
       <r>    0.0147    1.0000 </r>
       <r>    0.0155    1.0000 </r>
       <r>    0.0360    1.0000 </r>
       <r>    0.0364    1.0000 </r>
       <r>    0.0365    1.0000 </r>
       <r>    0.0370    1.0000 </r>
       <r>    0.0371    1.0000 </r>
       <r>    0.0371    1.0000 </r>
       <r>    0.0373    1.0000 </r>
       <r>    0.0373    1.0000 </r>
       <r>    0.0374    1.0000 </r>
       <r>    0.0379    1.0000 </r>
       <r>    0.0380    1.0000 </r>
       <r>    0.0386    1.0000 </r>
       <r>    0.8153    1.0000 </r>
       <r>    0.8160    1.0000 </r>
       <r>    0.8163    1.0000 </r>
       <r>    0.8164    1.0000 </r>
       <r>    0.8165    1.0000 </r>
       <r>    0.8165    1.0000 </r>
       <r>    0.8168    1.0000 </r>
       <r>    0.8168    1.0000 </r>
       <r>    0.8170    1.0000 </r>
       <r>    0.8170    1.0000 </r>
       <r>    0.8174    1.0000 </r>
       <r>    0.8180    1.0000 </r>
       <r>    0.9571    1.0000 </r>
       <r>    0.9572    1.0000 </r>
       <r>    0.9573    1.0000 </r>
       <r>    0.9574    1.0000 </r>
       <r>    0.9575    1.0000 </r>
       <r>    0.9576    1.0000 </r>
       <r>    1.2094    1.0000 </r>
       <r>    1.2097    1.0000 </r>
       <r>    1.2099    1.0000 </r>
       <r>    1.2099    1.0000 </r>
       <r>    1.2100    1.0000 </r>
       <r>    1.2104    1.0000 </r>
       <r>    1.6771    1.0000 </r>
       <r>    1.6773    1.0000 </r>
       <r>    1.6774    1.0000 </r>
       <r>    1.6774    1.0000 </r>
       <r>    1.6775    1.0000 </r>
       <r>    1.6776    1.0000 </r>
       <r>    2.3694    1.0000 </r>
       <r>    2.3700    1.0000 </r>
       <r>    2.3704    1.0000 </r>
       <r>    2.3706    1.0000 </r>
       <r>    2.3707    1.0000 </r>
       <r>    2.3707    1.0000 </r>
       <r>    2.3707    1.0000 </r>
       <r>    2.3707    1.0000 </r>
       <r>    2.3707    1.0000 </r>
       <r>    2.3710    1.0000 </r>
       <r>    2.3713    1.0000 </r>
       <r>    2.3719    1.0000 </r>
       <r>    2.8224    1.0000 </r>
       <r>    2.8230    1.0000 </r>
       <r>    2.8232    1.0000 </r>
       <r>    2.8235    1.0000 </r>
       <r>    2.8236    1.0000 </r>
       <r>    2.8236    1.0000 </r>
       <r>    2.8237    1.0000 </r>
       <r>    2.8238    1.0000 </r>
       <r>    2.8238    1.0000 </r>
       <r>    2.8242    1.0000 </r>
       <r>    2.8243    1.0000 </r>
       <r>    2.8250    1.0000 </r>
       <r>    2.9280    1.0000 </r>
       <r>    2.9285    1.0000 </r>
       <r>    2.9287    1.0000 </r>
       <r>    2.9289    1.0000 </r>
       <r>    2.9290    1.0000 </r>
       <r>    2.9293    1.0000 </r>
       <r>    2.9294    1.0000 </r>
       <r>    2.9300    1.0000 </r>
       <r>    3.6364    1.0000 </r>
       <r>    3.6367    1.0000 </r>
       <r>    3.6370    1.0000 </r>
       <r>    3.8033    0.0000 </r>
       <r>    3.8040    0.0000 </r>
       <r>    3.8047    0.0000 </r>
       <r>    3.9996    0.0000 </r>
       <r>    3.9996    0.0000 </r>
       <r>    3.9996    0.0000 </r>
       <r>    4.8075    0.0000 </r>
       <r>    4.8083    0.0000 </r>
       <r>    4.8083    0.0000 </r>
       <r>    4.8083    0.0000 </r>
       <r>    4.8084    0.0000 </r>
       <r>    4.8091    0.0000 </r>
       <r>    4.8609    0.0000 </r>
       <r>    4.8609    0.0000 </r>
       <r>    4.8613    0.0000 </r>
       <r>    4.8613    0.0000 </r>
       <r>    5.3843    0.0000 </r>
       <r>    5.3845    0.0000 </r>
       <r>    5.3851    0.0000 </r>
       <r>    5.3851    0.0000 </r>
       <r>    5.3857    0.0000 </r>
       <r>    5.3858    0.0000 </r>
       <r>    5.4004    0.0000 </r>
       <r>    5.4006    0.0000 </r>
       <r>    5.4010    0.0000 </r>
       <r>    5.4011    0.0000 </r>
       <r>    5.4012    0.0000 </r>
       <r>    5.4013    0.0000 </r>
       <r>    5.4013    0.0000 </r>
       <r>    5.4014    0.0000 </r>
       <r>    5.4015    0.0000 </r>
       <r>    5.4016    0.0000 </r>
       <r>    5.4021    0.0000 </r>
       <r>    5.4023    0.0000 </r>
       <r>    5.4901    0.0000 </r>
       <r>    6.1495    0.0000 </r>
       <r>    6.1498    0.0000 </r>
       <r>    6.1500    0.0000 </r>
       <r>    6.1503    0.0000 </r>
       <r>    6.1504    0.0000 </r>
       <r>    6.1506    0.0000 </r>
       <r>    6.1509    0.0000 </r>
       <r>    6.1511    0.0000 </r>
       <r>    6.1639    0.0000 </r>
       <r>    6.1639    0.0000 </r>
       <r>    6.1640    0.0000 </r>
       <r>    6.2840    0.0000 </r>
       <r>    6.2844    0.0000 </r>
       <r>    6.2847    0.0000 </r>
      </set>
     </set>
    </set>
   </array>
  </eigenvalues>
  <separator name="orbital magnetization" >
   <v name="MAGDIPOLOUT">      0.00000000      0.00000000      0.00000000</v>
  </separator>
  <dos>
   <i name="efermi">      3.69226217 </i>
   <total>
    <array>
     <dimension dim="1">gridpoints</dimension>
     <dimension dim="2">spin</dimension>
     <field>energy</field>
     <field>total</field>
     <field>integrated</field>
     <set>
      <set comment="spin 1">
       <r>    -6.0649     0.0000     0.0000 </r>
       <r>    -6.0218     0.0000     0.0000 </r>
       <r>    -5.9786     0.0000     0.0000 </r>
       <r>    -5.9355     0.0000     0.0000 </r>
       <r>    -5.8924     0.0000     0.0000 </r>
       <r>    -5.8493     0.0000     0.0000 </r>
       <r>    -5.8061     0.0000     0.0000 </r>
       <r>    -5.7630     0.0000     0.0000 </r>
       <r>    -5.7199     0.0000     0.0000 </r>
       <r>    -5.6768     0.0000     0.0000 </r>
       <r>    -5.6336     0.0000     0.0000 </r>
       <r>    -5.5905     0.0000     0.0000 </r>
       <r>    -5.5474     0.0000     0.0000 </r>
       <r>    -5.5043     0.0024     0.0001 </r>
       <r>    -5.4611    45.7577     1.9734 </r>
       <r>    -5.4180     0.6161     2.0000 </r>
       <r>    -5.3749     0.0000     2.0000 </r>
       <r>    -5.3318     0.0000     2.0000 </r>
       <r>    -5.2886     0.0000     2.0000 </r>
       <r>    -5.2455     0.0000     2.0000 </r>
       <r>    -5.2024     0.0000     2.0000 </r>
       <r>    -5.1593     0.0000     2.0000 </r>
       <r>    -5.1161     0.0000     2.0000 </r>
       <r>    -5.0730     0.0000     2.0000 </r>
       <r>    -5.0299     0.0000     2.0000 </r>
       <r>    -4.9868     0.0000     2.0000 </r>
       <r>    -4.9436     0.0000     2.0000 </r>
       <r>    -4.9005     0.0000     2.0000 </r>
       <r>    -4.8574     0.0000     2.0000 </r>
       <r>    -4.8142     0.0000     2.0000 </r>
       <r>    -4.7711     0.4910     2.0212 </r>
       <r>    -4.7280   277.5434    13.9904 </r>
       <r>    -4.6849     0.2231    14.0000 </r>
       <r>    -4.6417     0.0000    14.0000 </r>
       <r>    -4.5986     0.0000    14.0000 </r>
       <r>    -4.5555     0.0000    14.0000 </r>
       <r>    -4.5124     0.0000    14.0000 </r>
       <r>    -4.4692     0.0000    14.0000 </r>
       <r>    -4.4261     0.0000    14.0000 </r>
       <r>    -4.3830     0.0000    14.0000 </r>
       <r>    -4.3399     0.0000    14.0000 </r>
       <r>    -4.2967     0.0000    14.0000 </r>
       <r>    -4.2536     0.0000    14.0000 </r>
       <r>    -4.2105     0.0000    14.0000 </r>
       <r>    -4.1674   379.6761    30.3737 </r>
       <r>    -4.1242   176.8388    38.0000 </r>
       <r>    -4.0811     0.0000    38.0000 </r>
       <r>    -4.0380   125.9116    43.4300 </r>
       <r>    -3.9949    59.5933    46.0000 </r>
       <r>    -3.9517     0.0000    46.0000 </r>
       <r>    -3.9086     0.0000    46.0000 </r>
       <r>    -3.8655     0.0000    46.0000 </r>
       <r>    -3.8224     0.0000    46.0000 </r>
       <r>    -3.7792     0.0000    46.0000 </r>
       <r>    -3.7361     0.0000    46.0000 </r>
       <r>    -3.6930     0.0000    46.0000 </r>
       <r>    -3.6499     0.0000    46.0000 </r>
       <r>    -3.6067     0.0000    46.0000 </r>
       <r>    -3.5636     0.0000    46.0000 </r>
       <r>    -3.5205     0.0000    46.0000 </r>
       <r>    -3.4774    78.0744    49.3670 </r>
       <r>    -3.4342   127.2125    54.8531 </r>
       <r>    -3.3911   212.0992    64.0000 </r>
       <r>    -3.3480     0.0000    64.0000 </r>
       <r>    -3.3049     0.0000    64.0000 </r>
       <r>    -3.2617     0.0000    64.0000 </r>
       <r>    -3.2186     0.0000    64.0000 </r>
       <r>    -3.1755     0.0000    64.0000 </r>
       <r>    -3.1324     0.0000    64.0000 </r>
       <r>    -3.0892     0.0000    64.0000 </r>
       <r>    -3.0461     0.0000    64.0000 </r>
       <r>    -3.0030     0.0000    64.0000 </r>
       <r>    -2.9599     0.0000    64.0000 </r>
       <r>    -2.9167     0.0000    64.0000 </r>
       <r>    -2.8736     0.0000    64.0000 </r>
       <r>    -2.8305     0.0000    64.0000 </r>
       <r>    -2.7873     0.0000    64.0000 </r>
       <r>    -2.7442     0.0000    64.0000 </r>
       <r>    -2.7011     0.0000    64.0000 </r>
       <r>    -2.6580     0.0000    64.0000 </r>
       <r>    -2.6148     0.0000    64.0000 </r>
       <r>    -2.5717     0.0000    64.0000 </r>
       <r>    -2.5286     0.0000    64.0000 </r>
       <r>    -2.4855     0.0000    64.0000 </r>
       <r>    -2.4423     0.0000    64.0000 </r>
       <r>    -2.3992     0.0000    64.0000 </r>
       <r>    -2.3561     0.0000    64.0000 </r>
       <r>    -2.3130     0.0000    64.0000 </r>
       <r>    -2.2698     0.0000    64.0000 </r>
       <r>    -2.2267     0.0000    64.0000 </r>
       <r>    -2.1836     0.0000    64.0000 </r>
       <r>    -2.1405     0.0000    64.0000 </r>
       <r>    -2.0973     0.0000    64.0000 </r>
       <r>    -2.0542     0.0000    64.0000 </r>
       <r>    -2.0111     0.0000    64.0000 </r>
       <r>    -1.9680     0.0000    64.0000 </r>
       <r>    -1.9248     0.0000    64.0000 </r>
       <r>    -1.8817     0.0000    64.0000 </r>
       <r>    -1.8386     0.0000    64.0000 </r>
       <r>    -1.7955     0.0000    64.0000 </r>
       <r>    -1.7523     0.0000    64.0000 </r>
       <r>    -1.7092     0.0000    64.0000 </r>
       <r>    -1.6661     0.0000    64.0000 </r>
       <r>    -1.6230     0.0000    64.0000 </r>
       <r>    -1.5798     0.0000    64.0000 </r>
       <r>    -1.5367     0.0000    64.0000 </r>
       <r>    -1.4936     0.0000    64.0000 </r>
       <r>    -1.4505     0.0000    64.0000 </r>
       <r>    -1.4073     0.0000    64.0000 </r>
       <r>    -1.3642     0.0000    64.0000 </r>
       <r>    -1.3211     0.0000    64.0000 </r>
       <r>    -1.2780     0.0000    64.0000 </r>
       <r>    -1.2348     0.0000    64.0000 </r>
       <r>    -1.1917     0.0000    64.0000 </r>
       <r>    -1.1486    74.9472    67.2321 </r>
       <r>    -1.1055   110.5578    72.0000 </r>
       <r>    -1.0623     0.0000    72.0000 </r>
       <r>    -1.0192     0.0000    72.0000 </r>
       <r>    -0.9761     0.0000    72.0000 </r>
       <r>    -0.9330     0.0000    72.0000 </r>
       <r>    -0.8898     0.0000    72.0000 </r>
       <r>    -0.8467     0.0105    72.0005 </r>
       <r>    -0.8036   137.6611    77.9372 </r>
       <r>    -0.7604     1.4572    78.0000 </r>
       <r>    -0.7173     0.0000    78.0000 </r>
       <r>    -0.6742     0.0000    78.0000 </r>
       <r>    -0.6311     0.0000    78.0000 </r>
       <r>    -0.5879     0.0000    78.0000 </r>
       <r>    -0.5448     0.0000    78.0000 </r>
       <r>    -0.5017     0.0000    78.0000 </r>
       <r>    -0.4586     0.0000    78.0000 </r>
       <r>    -0.4154     0.0000    78.0000 </r>
       <r>    -0.3723     0.0000    78.0000 </r>
       <r>    -0.3292     0.0000    78.0000 </r>
       <r>    -0.2861     0.0000    78.0000 </r>
       <r>    -0.2429     0.0000    78.0000 </r>
       <r>    -0.1998     0.0000    78.0000 </r>
       <r>    -0.1567     0.0000    78.0000 </r>
       <r>    -0.1136     0.0000    78.0000 </r>
       <r>    -0.0704     0.0000    78.0000 </r>
       <r>    -0.0273     0.0000    78.0000 </r>
       <r>     0.0158   329.8879    92.2266 </r>
       <r>     0.0589   782.5221   125.9733 </r>
       <r>     0.1021     0.6198   126.0000 </r>
       <r>     0.1452     0.0000   126.0000 </r>
       <r>     0.1883     0.0000   126.0000 </r>
       <r>     0.2314     0.0000   126.0000 </r>
       <r>     0.2746     0.0000   126.0000 </r>
       <r>     0.3177     0.0000   126.0000 </r>
       <r>     0.3608     0.0000   126.0000 </r>
       <r>     0.4039     0.0000   126.0000 </r>
       <r>     0.4471     0.0000   126.0000 </r>
       <r>     0.4902     0.0000   126.0000 </r>
       <r>     0.5333     0.0000   126.0000 </r>
       <r>     0.5764     0.0000   126.0000 </r>
       <r>     0.6196     0.0000   126.0000 </r>
       <r>     0.6627     0.0000   126.0000 </r>
       <r>     0.7058     0.0000   126.0000 </r>
       <r>     0.7489     0.0000   126.0000 </r>
       <r>     0.7921     0.1466   126.0063 </r>
       <r>     0.8352   553.8181   149.8900 </r>
       <r>     0.8783     2.5503   150.0000 </r>
       <r>     0.9214     0.0001   150.0000 </r>
       <r>     0.9646   235.5777   160.1594 </r>
       <r>     1.0077    42.6797   162.0000 </r>
       <r>     1.0508     0.0000   162.0000 </r>
       <r>     1.0939     0.0000   162.0000 </r>
       <r>     1.1371     0.0000   162.0000 </r>
       <r>     1.1802     0.0039   162.0002 </r>
       <r>     1.2233   270.3073   173.6573 </r>
       <r>     1.2665     7.9463   174.0000 </r>
       <r>     1.3096     0.0000   174.0000 </r>
       <r>     1.3527     0.0000   174.0000 </r>
       <r>     1.3958     0.0000   174.0000 </r>
       <r>     1.4390     0.0000   174.0000 </r>
       <r>     1.4821     0.0000   174.0000 </r>
       <r>     1.5252     0.0000   174.0000 </r>
       <r>     1.5683     0.0000   174.0000 </r>
       <r>     1.6115     0.0000   174.0000 </r>
       <r>     1.6546     0.1764   174.0076 </r>
       <r>     1.6977   277.5175   185.9757 </r>
       <r>     1.7408     0.5635   186.0000 </r>
       <r>     1.7840     0.0000   186.0000 </r>
       <r>     1.8271     0.0000   186.0000 </r>
       <r>     1.8702     0.0000   186.0000 </r>
       <r>     1.9133     0.0000   186.0000 </r>
       <r>     1.9565     0.0000   186.0000 </r>
       <r>     1.9996     0.0000   186.0000 </r>
       <r>     2.0427     0.0000   186.0000 </r>
       <r>     2.0858     0.0000   186.0000 </r>
       <r>     2.1290     0.0000   186.0000 </r>
       <r>     2.1721     0.0000   186.0000 </r>
       <r>     2.2152     0.0000   186.0000 </r>
       <r>     2.2583     0.0000   186.0000 </r>
       <r>     2.3015     0.0000   186.0000 </r>
       <r>     2.3446     0.0657   186.0028 </r>
       <r>     2.3877   551.9046   209.8040 </r>
       <r>     2.4308     4.5446   210.0000 </r>
       <r>     2.4740     0.0000   210.0000 </r>
       <r>     2.5171     0.0000   210.0000 </r>
       <r>     2.5602     0.0000   210.0000 </r>
       <r>     2.6033     0.0000   210.0000 </r>
       <r>     2.6465     0.0000   210.0000 </r>
       <r>     2.6896     0.0000   210.0000 </r>
       <r>     2.7327     0.0000   210.0000 </r>
       <r>     2.7758     0.0000   210.0000 </r>
       <r>     2.8190   141.0851   216.0844 </r>
       <r>     2.8621   415.4299   234.0000 </r>
       <r>     2.9052     0.1502   234.0065 </r>
       <r>     2.9483   369.6844   249.9493 </r>
       <r>     2.9915     1.1753   250.0000 </r>
       <r>     3.0346     0.0000   250.0000 </r>
       <r>     3.0777     0.0000   250.0000 </r>
       <r>     3.1208     0.0000   250.0000 </r>
       <r>     3.1640     0.0000   250.0000 </r>
       <r>     3.2071     0.0000   250.0000 </r>
       <r>     3.2502     0.0000   250.0000 </r>
       <r>     3.2934     0.0000   250.0000 </r>
       <r>     3.3365     0.0000   250.0000 </r>
       <r>     3.3796     0.0000   250.0000 </r>
       <r>     3.4227     0.0000   250.0000 </r>
       <r>     3.4659     0.0000   250.0000 </r>
       <r>     3.5090     0.0000   250.0000 </r>
       <r>     3.5521     0.0000   250.0000 </r>
       <r>     3.5952     0.0000   250.0000 </r>
       <r>     3.6384    82.7463   253.5685 </r>
       <r>     3.6815    56.3824   256.0000 </r>
       <r>     3.7246     0.0000   256.0000 </r>
       <r>     3.7677     0.0000   256.0000 </r>
       <r>     3.8109   115.8649   260.9967 </r>
       <r>     3.8540    23.2638   262.0000 </r>
       <r>     3.8971     0.0000   262.0000 </r>
       <r>     3.9402     0.0000   262.0000 </r>
       <r>     3.9834     1.5206   262.0656 </r>
       <r>     4.0265   137.5983   267.9996 </r>
       <r>     4.0696     0.0098   268.0000 </r>
       <r>     4.1127     0.0000   268.0000 </r>
       <r>     4.1559     0.0000   268.0000 </r>
       <r>     4.1990     0.0000   268.0000 </r>
       <r>     4.2421     0.0000   268.0000 </r>
       <r>     4.2852     0.0000   268.0000 </r>
       <r>     4.3284     0.0000   268.0000 </r>
       <r>     4.3715     0.0000   268.0000 </r>
       <r>     4.4146     0.0000   268.0000 </r>
       <r>     4.4577     0.0000   268.0000 </r>
       <r>     4.5009     0.0000   268.0000 </r>
       <r>     4.5440     0.0000   268.0000 </r>
       <r>     4.5871     0.0000   268.0000 </r>
       <r>     4.6302     0.0000   268.0000 </r>
       <r>     4.6734     0.0000   268.0000 </r>
       <r>     4.7165     0.0000   268.0000 </r>
       <r>     4.7596     0.0000   268.0000 </r>
       <r>     4.8027    59.7845   270.5782 </r>
       <r>     4.8459   221.3756   280.1252 </r>
       <r>     4.8890   182.5949   287.9997 </r>
       <r>     4.9321     0.0075   288.0000 </r>
       <r>     4.9752     0.0000   288.0000 </r>
       <r>     5.0184     0.0000   288.0000 </r>
       <r>     5.0615     0.0000   288.0000 </r>
       <r>     5.1046     0.0000   288.0000 </r>
       <r>     5.1477     0.0000   288.0000 </r>
       <r>     5.1909     0.0000   288.0000 </r>
       <r>     5.2340     0.0000   288.0000 </r>
       <r>     5.2771     0.0000   288.0000 </r>
       <r>     5.3203     0.0000   288.0000 </r>
       <r>     5.3634     0.3088   288.0133 </r>
       <r>     5.4065   704.8643   318.4110 </r>
       <r>     5.4496   129.5993   324.0000 </r>
       <r>     5.4928    29.9667   325.2923 </r>
       <r>     5.5359    16.4096   326.0000 </r>
       <r>     5.5790     0.0000   326.0000 </r>
       <r>     5.6221     0.0000   326.0000 </r>
       <r>     5.6653     0.0000   326.0000 </r>
       <r>     5.7084     0.0000   326.0000 </r>
       <r>     5.7515     0.0000   326.0000 </r>
       <r>     5.7946     0.0000   326.0000 </r>
       <r>     5.8378     0.0000   326.0000 </r>
       <r>     5.8809     0.0000   326.0000 </r>
       <r>     5.9240     0.0000   326.0000 </r>
       <r>     5.9671     0.0000   326.0000 </r>
       <r>     6.0103     0.0000   326.0000 </r>
       <r>     6.0534     0.0000   326.0000 </r>
       <r>     6.0965     0.0000   326.0000 </r>
       <r>     6.1396    24.6066   327.0612 </r>
       <r>     6.1828   484.9906   347.9766 </r>
       <r>     6.2259     0.5415   348.0000 </r>
       <r>     6.2690     2.0790   348.0897 </r>
       <r>     6.3121   137.0436   353.9997 </r>
       <r>     6.3553     0.0061   354.0000 </r>
       <r>     6.3984     0.0000   354.0000 </r>
       <r>     6.4415     0.0000   354.0000 </r>
       <r>     6.4846     0.0000   354.0000 </r>
       <r>     6.5278     0.0000   354.0000 </r>
       <r>     6.5709     0.0000   354.0000 </r>
       <r>     6.6140     0.0000   354.0000 </r>
       <r>     6.6571     0.0000   354.0000 </r>
       <r>     6.7003     0.0000   354.0000 </r>
       <r>     6.7434     0.0000   354.0000 </r>
       <r>     6.7865     0.0000   354.0000 </r>
       <r>     6.8296     0.0000   354.0000 </r>
       <r>     6.8728     0.0000   354.0000 </r>
      </set>
     </set>
    </array>
   </total>
  </dos>
 </calculation>
 <structure name="finalpos" >
  <crystal>
   <varray name="basis" >
    <v>      12.71129245       0.00000000       0.00000000 </v>
    <v>       0.00000000      12.71129245       0.00000000 </v>
    <v>       0.00000000       0.00000000      12.71129245 </v>
   </varray>
   <i name="volume">   2053.85193682 </i>
   <varray name="rec_basis" >
    <v>       0.07867021       0.00000000       0.00000000 </v>
    <v>       0.00000000       0.07867021       0.00000000 </v>
    <v>       0.00000000       0.00000000       0.07867021 </v>
   </varray>
  </crystal>
  <varray name="positions" >
   <v>       0.00000000       0.00000000       0.00000000 </v>
   <v>       0.50000000       0.00000000       0.00000000 </v>
   <v>       0.00000000       0.50000000       0.00000000 </v>
   <v>       0.50000000       0.50000000       0.00000000 </v>
   <v>       0.00000000       0.00000000       0.50000000 </v>
   <v>       0.50000000       0.00000000       0.50000000 </v>
   <v>       0.00000000       0.50000000       0.50000000 </v>
   <v>       0.50000000       0.50000000       0.50000000 </v>
   <v>       0.25000000       0.25000000       0.00000000 </v>
   <v>       0.75000000       0.25000000       0.00000000 </v>
   <v>       0.25000000       0.75000000       0.00000000 </v>
   <v>       0.75000000       0.75000000       0.00000000 </v>
   <v>       0.25000000       0.25000000       0.50000000 </v>
   <v>       0.75000000       0.25000000       0.50000000 </v>
   <v>       0.25000000       0.75000000       0.50000000 </v>
   <v>       0.75000000       0.75000000       0.50000000 </v>
   <v>       0.25000000       0.00000000       0.25000000 </v>
   <v>       0.75000000       0.00000000       0.25000000 </v>
   <v>       0.25000000       0.50000000       0.25000000 </v>
   <v>       0.75000000       0.50000000       0.25000000 </v>
   <v>       0.25000000       0.00000000       0.75000000 </v>
   <v>       0.75000000       0.00000000       0.75000000 </v>
   <v>       0.25000000       0.50000000       0.75000000 </v>
   <v>       0.75000000       0.50000000       0.75000000 </v>
   <v>       0.00000000       0.25000000       0.25000000 </v>
   <v>       0.50000000       0.25000000       0.25000000 </v>
   <v>       0.00000000       0.75000000       0.25000000 </v>
   <v>       0.50000000       0.75000000       0.25000000 </v>
   <v>       0.00000000       0.25000000       0.75000000 </v>
   <v>       0.50000000       0.25000000       0.75000000 </v>
   <v>       0.00000000       0.75000000       0.75000000 </v>
   <v>       0.50000000       0.75000000       0.75000000 </v>
   <v>       0.12578670       0.12500000       0.12500000 </v>
   <v>       0.62500000       0.12500000       0.12500000 </v>
   <v>       0.12500000       0.62500000       0.12500000 </v>
   <v>       0.62500000       0.62500000       0.12500000 </v>
   <v>       0.12500000       0.12500000       0.62500000 </v>
   <v>       0.62500000       0.12500000       0.62500000 </v>
   <v>       0.12500000       0.62500000       0.62500000 </v>
   <v>       0.62500000       0.62500000       0.62500000 </v>
   <v>       0.37500000       0.12500000       0.12500000 </v>
   <v>       0.87500000       0.12500000       0.12500000 </v>
   <v>       0.37500000       0.62500000       0.12500000 </v>
   <v>       0.87500000       0.62500000       0.12500000 </v>
   <v>       0.37500000       0.12500000       0.62500000 </v>
   <v>       0.87500000       0.12500000       0.62500000 </v>
   <v>       0.37500000       0.62500000       0.62500000 </v>
   <v>       0.87500000       0.62500000       0.62500000 </v>
   <v>       0.12500000       0.37500000       0.12500000 </v>
   <v>       0.62500000       0.37500000       0.12500000 </v>
   <v>       0.12500000       0.87500000       0.12500000 </v>
   <v>       0.62500000       0.87500000       0.12500000 </v>
   <v>       0.12500000       0.37500000       0.62500000 </v>
   <v>       0.62500000       0.37500000       0.62500000 </v>
   <v>       0.12500000       0.87500000       0.62500000 </v>
   <v>       0.62500000       0.87500000       0.62500000 </v>
   <v>       0.37500000       0.37500000       0.12500000 </v>
   <v>       0.87500000       0.37500000       0.12500000 </v>
   <v>       0.37500000       0.87500000       0.12500000 </v>
   <v>       0.87500000       0.87500000       0.12500000 </v>
   <v>       0.37500000       0.37500000       0.62500000 </v>
   <v>       0.87500000       0.37500000       0.62500000 </v>
   <v>       0.37500000       0.87500000       0.62500000 </v>
   <v>       0.87500000       0.87500000       0.62500000 </v>
   <v>       0.12500000       0.12500000       0.37500000 </v>
   <v>       0.62500000       0.12500000       0.37500000 </v>
   <v>       0.12500000       0.62500000       0.37500000 </v>
   <v>       0.62500000       0.62500000       0.37500000 </v>
   <v>       0.12500000       0.12500000       0.87500000 </v>
   <v>       0.62500000       0.12500000       0.87500000 </v>
   <v>       0.12500000       0.62500000       0.87500000 </v>
   <v>       0.62500000       0.62500000       0.87500000 </v>
   <v>       0.37500000       0.12500000       0.37500000 </v>
   <v>       0.87500000       0.12500000       0.37500000 </v>
   <v>       0.37500000       0.62500000       0.37500000 </v>
   <v>       0.87500000       0.62500000       0.37500000 </v>
   <v>       0.37500000       0.12500000       0.87500000 </v>
   <v>       0.87500000       0.12500000       0.87500000 </v>
   <v>       0.37500000       0.62500000       0.87500000 </v>
   <v>       0.87500000       0.62500000       0.87500000 </v>
   <v>       0.12500000       0.37500000       0.37500000 </v>
   <v>       0.62500000       0.37500000       0.37500000 </v>
   <v>       0.12500000       0.87500000       0.37500000 </v>
   <v>       0.62500000       0.87500000       0.37500000 </v>
   <v>       0.12500000       0.37500000       0.87500000 </v>
   <v>       0.62500000       0.37500000       0.87500000 </v>
   <v>       0.12500000       0.87500000       0.87500000 </v>
   <v>       0.62500000       0.87500000       0.87500000 </v>
   <v>       0.37500000       0.37500000       0.37500000 </v>
   <v>       0.87500000       0.37500000       0.37500000 </v>
   <v>       0.37500000       0.87500000       0.37500000 </v>
   <v>       0.87500000       0.87500000       0.37500000 </v>
   <v>       0.37500000       0.37500000       0.87500000 </v>
   <v>       0.87500000       0.37500000       0.87500000 </v>
   <v>       0.37500000       0.87500000       0.87500000 </v>
   <v>       0.87500000       0.87500000       0.87500000 </v>
  </varray>
 </structure>
</modeling>
