96   
2    

1    
  0.0100000000000000   0.0000000000000000   0.0000000000000000
  -0.0658502100    0.0000000000    0.0000000000
   0.0008524700    0.0000000000    0.0000000000
  -0.0003504800    0.0000000000    0.0000000000
   0.0022856000    0.0000000000    0.0000000000
  -0.0003504800    0.0000000000    0.0000000000
   0.0022856000    0.0000000000    0.0000000000
   0.0000053800    0.0000000000    0.0000000000
   0.0003662900    0.0000000000    0.0000000000
   0.0018578800    0.0026515700    0.0000000000
   0.0018533000   -0.0026395100    0.0000000000
   0.0018578800   -0.0026515700    0.0000000000
   0.0018533000    0.0026395100    0.0000000000
  -0.0001452500    0.0003058100    0.0000000000
  -0.0001436000   -0.0003040300    0.0000000000
  -0.0001452500   -0.0003058100    0.0000000000
  -0.0001436000    0.0003040300    0.0000000000
   0.0018578800    0.0000000000    0.0026515700
   0.0018533000    0.0000000000   -0.0026395100
  -0.0001452500    0.0000000000    0.0003058100
  -0.0001436000    0.0000000000   -0.0003040300
   0.0018578800    0.0000000000   -0.0026515700
   0.0018533000    0.0000000000    0.0026395100
  -0.0001452500    0.0000000000   -0.0003058100
  -0.0001436000    0.0000000000    0.0003040300
  -0.0009537500   -0.0000041800   -0.0000041800
   0.0003419400   -0.0000001900   -0.0000001900
  -0.0009537500    0.0000041800   -0.0000041800
   0.0003419400    0.0000001900   -0.0000001900
  -0.0009537500   -0.0000041800    0.0000041800
   0.0003419400   -0.0000001900    0.0000001900
  -0.0009537500    0.0000041800    0.0000041800
   0.0003419400    0.0000001900    0.0000001900
   0.0068155800    0.0047990800    0.0047990800
  -0.0006186300   -0.0000221600   -0.0000221600
   0.0004733100    0.0002524100   -0.0003279000
  -0.0004602800   -0.0002618900    0.0006699200
   0.0004733100   -0.0003279000    0.0002524100
  -0.0004602800    0.0006699200   -0.0002618900
   0.0002123100   -0.0000694100   -0.0000694100
  -0.0001903700    0.0000392100    0.0000392100
  -0.0006191600    0.0000208500    0.0000208500
   0.0067162100   -0.0046382200   -0.0046382200
  -0.0004601400    0.0002598800   -0.0006721900
   0.0004706300   -0.0002536900    0.0003254600
  -0.0004601400   -0.0006721900    0.0002598800
   0.0004706300    0.0003254600   -0.0002536900
  -0.0001907200   -0.0000397100   -0.0000397100
   0.0002061800    0.0000689600    0.0000689600
   0.0004733100   -0.0002524100   -0.0003279000
  -0.0004602800    0.0002618900    0.0006699200
   0.0068155800   -0.0047990800    0.0047990800
  -0.0006186300    0.0000221600   -0.0000221600
   0.0002123100    0.0000694100   -0.0000694100
  -0.0001903700   -0.0000392100    0.0000392100
   0.0004733100    0.0003279000    0.0002524100
  -0.0004602800   -0.0006699200   -0.0002618900
  -0.0004601400   -0.0002598800   -0.0006721900
   0.0004706300    0.0002536900    0.0003254600
  -0.0006191600   -0.0000208500    0.0000208500
   0.0067162100    0.0046382200   -0.0046382200
  -0.0001907200    0.0000397100   -0.0000397100
   0.0002061800   -0.0000689600    0.0000689600
  -0.0004601400    0.0006721900    0.0002598800
   0.0004706300   -0.0003254600   -0.0002536900
   0.0004733100   -0.0003279000   -0.0002524100
  -0.0004602800    0.0006699200    0.0002618900
   0.0002123100   -0.0000694100    0.0000694100
  -0.0001903700    0.0000392100   -0.0000392100
   0.0068155800    0.0047990800   -0.0047990800
  -0.0006186300   -0.0000221600    0.0000221600
   0.0004733100    0.0002524100    0.0003279000
  -0.0004602800   -0.0002618900   -0.0006699200
  -0.0004601400   -0.0006721900   -0.0002598800
   0.0004706300    0.0003254600    0.0002536900
  -0.0001907200   -0.0000397100    0.0000397100
   0.0002061800    0.0000689600   -0.0000689600
  -0.0006191600    0.0000208500   -0.0000208500
   0.0067162100   -0.0046382200    0.0046382200
  -0.0004601400    0.0002598800    0.0006721900
   0.0004706300   -0.0002536900   -0.0003254600
   0.0002123100    0.0000694100    0.0000694100
  -0.0001903700   -0.0000392100   -0.0000392100
   0.0004733100    0.0003279000   -0.0002524100
  -0.0004602800   -0.0006699200    0.0002618900
   0.0004733100   -0.0002524100    0.0003279000
  -0.0004602800    0.0002618900   -0.0006699200
   0.0068155800   -0.0047990800   -0.0047990800
  -0.0006186300    0.0000221600    0.0000221600
  -0.0001907200    0.0000397100    0.0000397100
   0.0002061800   -0.0000689600   -0.0000689600
  -0.0004601400    0.0006721900   -0.0002598800
   0.0004706300   -0.0003254600    0.0002536900
  -0.0004601400   -0.0002598800    0.0006721900
   0.0004706300    0.0002536900   -0.0003254600
  -0.0006191600   -0.0000208500   -0.0000208500
   0.0067162100    0.0046382200    0.0046382200

33   
  0.0100000000000000   0.0000000000000000   0.0000000000000000
   0.0067105600    0.0046448700    0.0046448700
  -0.0006185000    0.0002529500    0.0002529500
   0.0004736400   -0.0000227100   -0.0003263900
  -0.0004594400   -0.0002588600   -0.0000686800
   0.0004736400   -0.0003263900   -0.0000227100
  -0.0004594400   -0.0000686800   -0.0002588600
   0.0002109700    0.0006707500    0.0006707500
  -0.0001910500    0.0000396700    0.0000396700
   0.0068207600    0.0047918500   -0.0047918500
  -0.0006183200    0.0002531300   -0.0002531300
   0.0004703100   -0.0000203600    0.0003264000
  -0.0004609200   -0.0002626100    0.0000699100
   0.0004703100   -0.0003264000    0.0000203600
  -0.0004609200   -0.0000699100    0.0002626100
   0.0002081300    0.0006711500   -0.0006711500
  -0.0001900300    0.0000393500   -0.0000393500
   0.0068207600   -0.0047918500    0.0047918500
  -0.0006183200   -0.0002531300    0.0002531300
   0.0004703100    0.0000203600   -0.0003264000
  -0.0004609200    0.0002626100   -0.0000699100
   0.0004703100    0.0003264000   -0.0000203600
  -0.0004609200    0.0000699100   -0.0002626100
   0.0002081300   -0.0006711500    0.0006711500
  -0.0001900300   -0.0000393500    0.0000393500
   0.0067105600   -0.0046448700   -0.0046448700
  -0.0006185000   -0.0002529500   -0.0002529500
   0.0004736400    0.0000227100    0.0003263900
  -0.0004594400    0.0002588600    0.0000686800
   0.0004736400    0.0003263900    0.0000227100
  -0.0004594400    0.0000686800    0.0002588600
   0.0002109700   -0.0006707500   -0.0006707500
  -0.0001910500   -0.0000396700   -0.0000396700
  -0.0432563800    0.0000000000    0.0000000000
   0.0004100200    0.0000000000    0.0000000000
  -0.0000105200    0.0000000000    0.0000000000
   0.0000087600    0.0000000000    0.0000000000
  -0.0000105200    0.0000000000    0.0000000000
   0.0000087600    0.0000000000    0.0000000000
  -0.0016958100    0.0000000000    0.0000000000
   0.0001769400    0.0000000000    0.0000000000
   0.0103177300    0.0000000000    0.0000000000
   0.0100633400    0.0000000000    0.0000000000
  -0.0000036800    0.0000000000    0.0000000000
  -0.0000066300    0.0000000000    0.0000000000
  -0.0000036800    0.0000000000    0.0000000000
  -0.0000066300    0.0000000000    0.0000000000
   0.0007589900    0.0000000000    0.0000000000
   0.0007583200    0.0000000000    0.0000000000
  -0.0024630700   -0.0000185500    0.0012390900
   0.0002386600    0.0000010900   -0.0003709000
  -0.0024630700    0.0000185500   -0.0012390900
   0.0002386600   -0.0000010900    0.0003709000
  -0.0005874900    0.0000005500   -0.0003709300
   0.0000783600   -0.0000017900    0.0000820800
  -0.0005874900   -0.0000005500    0.0003709300
   0.0000783600    0.0000017900   -0.0000820800
   0.0008734300    0.0009148800    0.0006101300
   0.0008714500   -0.0009138700    0.0006147000
   0.0008734300   -0.0009148800   -0.0006101300
   0.0008714500    0.0009138700   -0.0006147000
   0.0002471800   -0.0003395800   -0.0001411600
   0.0002455500    0.0003398700   -0.0001424100
   0.0002471800    0.0003395800    0.0001411600
   0.0002455500   -0.0003398700    0.0001424100
  -0.0024630700    0.0012390900   -0.0000185500
   0.0002386600   -0.0003709000    0.0000010900
  -0.0005874900   -0.0003709300    0.0000005500
   0.0000783600    0.0000820800   -0.0000017900
  -0.0024630700   -0.0012390900    0.0000185500
   0.0002386600    0.0003709000   -0.0000010900
  -0.0005874900    0.0003709300   -0.0000005500
   0.0000783600   -0.0000820800    0.0000017900
   0.0008734300    0.0006101300    0.0009148800
   0.0008714500    0.0006147000   -0.0009138700
   0.0002471800   -0.0001411600   -0.0003395800
   0.0002455500   -0.0001424100    0.0003398700
   0.0008734300   -0.0006101300   -0.0009148800
   0.0008714500   -0.0006147000    0.0009138700
   0.0002471800    0.0001411600    0.0003395800
   0.0002455500    0.0001424100   -0.0003398700
  -0.0017644000   -0.0006115300   -0.0006115300
   0.0001638400    0.0001419300    0.0001419300
  -0.0017669700   -0.0006133600    0.0006133600
   0.0001621800    0.0001417000   -0.0001417000
  -0.0017669700    0.0006133600   -0.0006133600
   0.0001621800   -0.0001417000    0.0001417000
  -0.0017644000    0.0006115300    0.0006115300
   0.0001638400   -0.0001419300   -0.0001419300
  -0.0001573000    0.0000774800    0.0000774800
   0.0016876000   -0.0003081800   -0.0003081800
   0.0016906500   -0.0003028200    0.0003028200
  -0.0001579900    0.0000774300   -0.0000774300
   0.0016906500    0.0003028200   -0.0003028200
  -0.0001579900   -0.0000774300    0.0000774300
  -0.0001573000   -0.0000774800   -0.0000774800
   0.0016876000    0.0003081800    0.0003081800
