96   
20   

1    
  0.0100000000000000   0.0000000000000000   0.0000000000000000
  -0.0653355500   -0.0000001200   -0.0000001200
   0.0026201300    0.0000000200   -0.0000000400
   0.0012913400   -0.0000000200    0.0000000400
   0.0071746900    0.0000000000   -0.0000000000
   0.0012914000   -0.0000000600    0.0000000300
   0.0071746000   -0.0000000100    0.0000000200
   0.0034206100   -0.0000000100   -0.0000000300
   0.0031342300    0.0000000500   -0.0000000100
   0.0066746400    0.0098722200    0.0000004200
  -0.0059989600    0.0028147800    0.0000000100
   0.0066746200   -0.0098722300    0.0000000000
  -0.0059989100   -0.0028147800   -0.0000004200
  -0.0049036300   -0.0031213800    0.0000000700
   0.0020065900   -0.0037957000    0.0000000600
  -0.0049036200    0.0031214000   -0.0000000700
   0.0020065800    0.0037957200   -0.0000000700
   0.0066745700   -0.0000000100    0.0098724200
  -0.0059988600   -0.0000000200    0.0028144600
  -0.0049035700    0.0000000400   -0.0031213100
   0.0020065400    0.0000000500   -0.0037957200
   0.0066745600   -0.0000000000   -0.0098719400
  -0.0059989200   -0.0000000400   -0.0028149200
  -0.0049035400   -0.0000000300    0.0031213500
   0.0020065100   -0.0000000200    0.0037956600
  -0.0023626800    0.0063350900    0.0063352500
  -0.0001202600   -0.0034603900   -0.0034604400
  -0.0023627100   -0.0063350900    0.0063348900
  -0.0001202700    0.0034603600   -0.0034603800
  -0.0023626900    0.0063350800   -0.0063348400
  -0.0001202500   -0.0034603800    0.0034604500
  -0.0023627200   -0.0063350500   -0.0063352800
  -0.0001202200    0.0034604100    0.0034603700
  -0.0071422000   -0.0082491600   -0.0082490600
  -0.0021455700    0.0004908400    0.0004907800
   0.0011420300   -0.0014008700    0.0000688400
  -0.0010349600   -0.0007795000    0.0001446900
   0.0011422800    0.0000693100   -0.0014013600
  -0.0010349500    0.0001450900   -0.0007799800
  -0.0000792000   -0.0006593800   -0.0006597500
  -0.0011028500   -0.0009031600   -0.0009036400
   0.0009943800    0.0005514800    0.0005516000
   0.0224995400   -0.0212951600   -0.0212950000
  -0.0000900800   -0.0001782000   -0.0008345700
   0.0000859000   -0.0017501200    0.0009739500
  -0.0000900500   -0.0008349900   -0.0001778800
   0.0000856200    0.0009734800   -0.0017496800
   0.0006814100   -0.0008924800   -0.0008919700
   0.0006001600   -0.0002987800   -0.0002983600
   0.0011416600    0.0014008600    0.0000687800
  -0.0010358600    0.0007794500    0.0001447500
  -0.0071421900    0.0082492000   -0.0082491600
  -0.0021464400   -0.0004908000    0.0004907700
  -0.0000800300    0.0006593400   -0.0006597800
  -0.0011036900    0.0009031500   -0.0009036800
   0.0011413600   -0.0000692500   -0.0014013300
  -0.0010358600   -0.0001450700   -0.0007799500
  -0.0000891600    0.0001781700   -0.0008345000
   0.0000862600    0.0017500900    0.0009738900
   0.0009952400   -0.0005514500    0.0005515700
   0.0224995100    0.0212951900   -0.0212950700
   0.0006822600    0.0008924600   -0.0008920100
   0.0006010000    0.0002987500   -0.0002983800
  -0.0000891200    0.0008350200   -0.0001778300
   0.0000865200   -0.0009734300   -0.0017496400
   0.0011414000    0.0000683900    0.0014013100
  -0.0010358400    0.0001442400    0.0007799100
  -0.0000800700   -0.0006602500    0.0006597900
  -0.0011037400   -0.0009040700    0.0009036100
  -0.0071422300   -0.0082491400    0.0082491900
  -0.0021464900    0.0004904800   -0.0004906300
   0.0011417000   -0.0014017700   -0.0000687900
  -0.0010358400   -0.0007803600   -0.0001446800
  -0.0000891500   -0.0008341000    0.0001778100
   0.0000864800    0.0009743300    0.0017496400
   0.0006823500   -0.0008915700    0.0008920000
   0.0006009900   -0.0002979400    0.0002983500
   0.0009952600    0.0005517800   -0.0005516300
   0.0224995900   -0.0212950900    0.0212950400
  -0.0000892300   -0.0001773600    0.0008345500
   0.0000862600   -0.0017492000   -0.0009738300
  -0.0000791900    0.0006602000    0.0006598200
  -0.0011028200    0.0009040100    0.0009036000
   0.0011422900   -0.0000683400    0.0014013100
  -0.0010349500   -0.0001441800    0.0007799000
   0.0011420200    0.0014017600   -0.0000689100
  -0.0010349500    0.0007803600   -0.0001446600
  -0.0071422400    0.0082491800    0.0082491900
  -0.0021456000   -0.0004905000   -0.0004906400
   0.0006814300    0.0008915100    0.0008919900
   0.0006001200    0.0002978700    0.0002983600
  -0.0000900500    0.0008341700    0.0001777800
   0.0000855900   -0.0009742800    0.0017496300
  -0.0000900900    0.0001773800    0.0008345500
   0.0000859200    0.0017491800   -0.0009739400
   0.0009943600   -0.0005517900   -0.0005516100
   0.0224995900    0.0212951300    0.0212950000

2    
  0.0070710678118655   0.0070710678118655   0.0000000000000000
   0.0018539700    0.0009149500    0.0000000600
  -0.0404456700   -0.0408722600    0.0000000700
   0.0042872600    0.0042872700    0.0000000200
   0.0008592000    0.0020463200   -0.0000000000
   0.0042873200    0.0019335900    0.0000000200
   0.0008590900    0.0007996400    0.0000000300
   0.0019014000    0.0020410200   -0.0000000300
   0.0018909800    0.0043870300   -0.0000000000
   0.0046638100    0.0046018100    0.0000003900
  -0.0033175600    0.0092145200   -0.0000000200
   0.0093615400   -0.0034823500   -0.0000000000
  -0.0080261700   -0.0080839100   -0.0000004300
  -0.0045854700   -0.0046864400    0.0000000700
   0.0029623300   -0.0040490600    0.0000000700
  -0.0039562200    0.0028655100   -0.0000000500
   0.0023355900    0.0022251000   -0.0000000400
   0.0070189700   -0.0016655800    0.0040404100
  -0.0056780400   -0.0016704700    0.0086471100
  -0.0042695300   -0.0000905300   -0.0037773200
   0.0026476900   -0.0000903900   -0.0031385700
   0.0070189700   -0.0016655600   -0.0040399500
  -0.0056780900   -0.0016704700   -0.0086475500
  -0.0042694900   -0.0000906000    0.0037773700
   0.0026476700   -0.0000904600    0.0031385100
  -0.0002234300    0.0054543400    0.0066905900
  -0.0016532600   -0.0027270000   -0.0010753200
  -0.0002233100   -0.0072350900    0.0059978800
  -0.0016484700    0.0041974800   -0.0058411200
  -0.0002234500    0.0054543200   -0.0066902100
  -0.0016532100   -0.0027270000    0.0010753500
  -0.0002233200   -0.0072350200   -0.0059982700
  -0.0016484200    0.0041975300    0.0058411000
  -0.0152123600   -0.0144995300   -0.0152774100
   0.0057747800    0.0079461100    0.0060086400
  -0.0001817500   -0.0022601700    0.0014093600
  -0.0000950200   -0.0007999900   -0.0007504500
  -0.0000273100    0.0011650900   -0.0019837000
  -0.0003627800   -0.0002538400   -0.0001380500
  -0.0005282500   -0.0006369400   -0.0004783700
  -0.0002362500   -0.0014403000   -0.0013002600
   0.0035573000    0.0024733000    0.0005030500
   0.0142454900   -0.0143716900   -0.0151516400
   0.0009431300   -0.0011360500   -0.0000927500
  -0.0006681300   -0.0017039000    0.0005565600
   0.0012118300    0.0004041300   -0.0004730800
  -0.0008214700    0.0003063200   -0.0014247000
   0.0006382000   -0.0012069300   -0.0010631500
   0.0002083800   -0.0006256300   -0.0004663500
   0.0003828500    0.0014371000    0.0004989300
  -0.0000059500   -0.0001852400   -0.0006107200
  -0.0154923300    0.0153639800   -0.0145931200
   0.0003862800    0.0014522000    0.0005086300
  -0.0004851000    0.0003225400   -0.0004856000
  -0.0011451500    0.0005844400   -0.0007299600
   0.0002289300   -0.0007523200   -0.0017188100
   0.0002608800    0.0011001400   -0.0004820000
   0.0008573400    0.0001530300    0.0000478200
  -0.0012327600    0.0008808000   -0.0003624800
   0.0086129900    0.0065889200   -0.0045968700
   0.0145275200    0.0152396100   -0.0144666100
   0.0015455300    0.0003488600   -0.0004962700
   0.0001672000    0.0003131600   -0.0004752000
   0.0005896000    0.0004436100   -0.0008195800
  -0.0010799600    0.0001050300   -0.0011633500
  -0.0000281900    0.0011641900    0.0019836500
  -0.0003636800   -0.0002547000    0.0001380100
  -0.0005291300   -0.0006378300    0.0004783500
  -0.0002371400   -0.0014412000    0.0013002500
  -0.0152123600   -0.0144995200    0.0152775000
   0.0057738800    0.0079457700   -0.0060085300
  -0.0001820800   -0.0022610500   -0.0014093000
  -0.0000959100   -0.0008008700    0.0007504100
   0.0012127400    0.0004050200    0.0004730700
  -0.0008206000    0.0003071900    0.0014246700
   0.0006391100   -0.0012060100    0.0010631400
   0.0002092600   -0.0006247500    0.0004663200
   0.0035581800    0.0024736200   -0.0005031300
   0.0142454800   -0.0143716500    0.0151516400
   0.0009439900   -0.0011351900    0.0000927300
  -0.0006677800   -0.0017029900   -0.0005564500
  -0.0004842300    0.0003234300    0.0004856200
  -0.0011442700    0.0005853400    0.0007299400
   0.0002298400   -0.0007514300    0.0017188100
   0.0002618000    0.0011010400    0.0004819500
   0.0003832200    0.0014380000   -0.0004990500
  -0.0000050700   -0.0001843600    0.0006107400
  -0.0154923700    0.0153639800    0.0145931200
   0.0003871700    0.0014525300   -0.0005085200
   0.0015446600    0.0003479400    0.0004962500
   0.0001663200    0.0003122800    0.0004752000
   0.0005887000    0.0004427500    0.0008195700
  -0.0010808800    0.0001041500    0.0011633700
   0.0008564300    0.0001521800   -0.0000477700
  -0.0012330900    0.0008799100    0.0003624200
   0.0086121100    0.0065885700    0.0045968100
   0.0145275400    0.0152395800    0.0144665000

4    
  0.0070710678118655   0.0000000000000000   0.0070710678118655
   0.0050738100    0.0000001300    0.0024189500
   0.0008590900    0.0000000200    0.0007996200
   0.0020462700   -0.0000000200    0.0007997000
  -0.0408015600    0.0000000100   -0.0402262800
   0.0020410100   -0.0000000600    0.0019014200
   0.0025751700   -0.0000000200    0.0047211100
   0.0047210600    0.0000000200    0.0047210200
   0.0010812700    0.0000000300    0.0021602700
   0.0067177300    0.0090181000   -0.0021756200
  -0.0059785900    0.0036682000   -0.0021828200
   0.0067176700   -0.0090181200   -0.0021760200
  -0.0059785400   -0.0036682300   -0.0021832300
  -0.0044978600   -0.0031853300   -0.0003321000
   0.0024211200   -0.0037320500   -0.0003321200
  -0.0044978500    0.0031853400   -0.0003322200
   0.0024211100    0.0037320600   -0.0003322400
   0.0050190000   -0.0000000200    0.0053249000
  -0.0072737100   -0.0000000300    0.0055570800
  -0.0053288800    0.0000000500   -0.0050834100
   0.0064374900    0.0000000600   -0.0002542800
   0.0054088200   -0.0000000100   -0.0071292900
  -0.0076608300   -0.0000000300   -0.0073661700
  -0.0004874900   -0.0000000200    0.0066531900
   0.0015860400   -0.0000000100    0.0018367700
  -0.0001844100    0.0061488000    0.0054402100
  -0.0015292800   -0.0058817600   -0.0026743000
  -0.0001844300   -0.0061487900    0.0054398700
  -0.0015292700    0.0058817200   -0.0026742600
  -0.0001840000    0.0065371900   -0.0072464700
  -0.0015250200   -0.0010353100    0.0042506700
  -0.0001840100   -0.0065371300   -0.0072469100
  -0.0015249900    0.0010353300    0.0042505900
  -0.0154480200   -0.0153521000   -0.0143037300
  -0.0014727100    0.0008503500    0.0006639300
   0.0002115100   -0.0019863900    0.0008984000
   0.0069675500    0.0050626000    0.0071261600
   0.0004134200    0.0004968900   -0.0017392800
   0.0001640100   -0.0008144400   -0.0010292200
  -0.0010740200    0.0004279800   -0.0012150000
  -0.0005344900   -0.0012609900   -0.0012458800
   0.0023562200    0.0004622600    0.0012980000
   0.0146251200   -0.0147259600   -0.0149837300
   0.0025118100   -0.0005823200    0.0015661300
  -0.0011074100   -0.0018514800    0.0010646500
   0.0001648200   -0.0004993400   -0.0008061100
  -0.0006457000    0.0005559900   -0.0016953000
   0.0013584700   -0.0006413200   -0.0015755200
   0.0002331900   -0.0004377100   -0.0006202000
   0.0002111400    0.0019863700    0.0008983300
   0.0069666500   -0.0050626200    0.0071261900
  -0.0154479700    0.0153520800   -0.0143037700
  -0.0014736000   -0.0008503400    0.0006639300
  -0.0010748900   -0.0004280100   -0.0012150000
  -0.0005353500    0.0012609700   -0.0012459000
   0.0004125200   -0.0004968600   -0.0017392500
   0.0001630900    0.0008144500   -0.0010292100
   0.0025127000    0.0005823000    0.0015661700
  -0.0011070500    0.0018514600    0.0010645800
   0.0023571000   -0.0004622500    0.0012980000
   0.0146250800    0.0147259500   -0.0149837600
   0.0013593400    0.0006413000   -0.0015755400
   0.0002340600    0.0004376800   -0.0006202000
   0.0001657400    0.0004993400   -0.0008061000
  -0.0006447900   -0.0005559600   -0.0016952600
   0.0004087300    0.0004919800    0.0014455900
  -0.0007798500   -0.0001990700    0.0001478500
  -0.0004611300   -0.0005097300    0.0003319700
  -0.0004305200   -0.0011590300    0.0002166100
  -0.0151097500   -0.0150103500    0.0147409000
  -0.0007860700    0.0005829700    0.0002479100
  -0.0000563200   -0.0013007000    0.0000122100
   0.0015282200   -0.0004091100    0.0022870600
   0.0011068000    0.0001134300   -0.0000780200
  -0.0006388200    0.0005510600    0.0014036400
   0.0012585400   -0.0005374800    0.0005486900
  -0.0003802300   -0.0013839500   -0.0002622200
   0.0016717300    0.0001924100   -0.0003852200
   0.0142844800   -0.0143887700    0.0154193100
   0.0076098200   -0.0056482900    0.0075072600
  -0.0008373800   -0.0011642500   -0.0001505200
  -0.0004602500    0.0005097000    0.0003320000
  -0.0004296100    0.0011590100    0.0002166200
   0.0004096100   -0.0004919600    0.0014456100
  -0.0007789600    0.0001991100    0.0001478400
  -0.0000560000    0.0013007000    0.0000121100
   0.0015290900    0.0004091100    0.0022871000
  -0.0151097400    0.0150103400    0.0147408500
  -0.0007851700   -0.0005829800    0.0002479100
   0.0012576400    0.0005374500    0.0005486900
  -0.0003811100    0.0013839300   -0.0002621900
   0.0011059100   -0.0001133900   -0.0000780300
  -0.0006397000   -0.0005510500    0.0014036600
   0.0076089400    0.0056482800    0.0075072900
  -0.0008377000    0.0011642600   -0.0001506200
   0.0016708400   -0.0001924200   -0.0003852100
   0.0142844700    0.0143887700    0.0154192500

8    
  0.0100000000000000   0.0000000000000000   0.0000000000000000
   0.0031340100    0.0000001200    0.0000000600
   0.0026741700    0.0000000200   -0.0000000500
   0.0062041800   -0.0000000200    0.0000000200
   0.0015292200   -0.0000000000    0.0000000000
   0.0062042300   -0.0000000600    0.0000000200
   0.0015291800   -0.0000000200    0.0000000200
   0.0030550800    0.0000000100   -0.0000000200
  -0.0560069400    0.0000000300    0.0000001400
   0.0049570100    0.0069132400    0.0000003900
  -0.0077265400    0.0057706800   -0.0000000200
   0.0049569400   -0.0069132500   -0.0000000000
  -0.0077264800   -0.0057707100   -0.0000004200
  -0.0024985900   -0.0000899200    0.0000000700
   0.0044121600   -0.0068378000    0.0000000700
  -0.0024985800    0.0000899300   -0.0000000500
   0.0044121600    0.0068378100   -0.0000000500
   0.0049569200   -0.0000000200    0.0069134300
  -0.0077264400   -0.0000000300    0.0057703800
  -0.0024985400    0.0000000400   -0.0000898300
   0.0044121100    0.0000000600   -0.0068378100
   0.0049569200   -0.0000000100   -0.0069129700
  -0.0077264900   -0.0000000300   -0.0057708300
  -0.0024985100   -0.0000000200    0.0000898700
   0.0044120900   -0.0000000100    0.0068377500
  -0.0003083700    0.0063446800    0.0063448000
  -0.0023463700   -0.0034514200   -0.0034514400
  -0.0003084000   -0.0063446700    0.0063444600
  -0.0023463500    0.0034513800   -0.0034514100
  -0.0003083800    0.0063446600   -0.0063444300
  -0.0023463400   -0.0034514100    0.0034514700
  -0.0003084000   -0.0063446100   -0.0063448600
  -0.0023463100    0.0034514300    0.0034513900
  -0.0150801200   -0.0149238500   -0.0149237600
  -0.0012749900    0.0003720900    0.0003719800
  -0.0000477800   -0.0009494000    0.0001107900
   0.0001149900   -0.0009072500   -0.0001531400
  -0.0000475300    0.0001112300   -0.0009498800
   0.0001150000   -0.0001527000   -0.0009077100
  -0.0010490700   -0.0005581400   -0.0005585600
   0.0054868900    0.0027184700    0.0027180400
   0.0018485000    0.0006742100    0.0006743200
   0.0146523100   -0.0148154900   -0.0148154000
   0.0010581000   -0.0000524900   -0.0005483200
  -0.0011038700   -0.0021921900    0.0009350600
   0.0010581200   -0.0005487400   -0.0000520800
  -0.0011041400    0.0009345900   -0.0021917500
   0.0071611600   -0.0043517000   -0.0043512200
  -0.0003576500   -0.0003998600   -0.0003994100
  -0.0000481500    0.0009493900    0.0001107200
   0.0001141000    0.0009072400   -0.0001531100
  -0.0150800700    0.0149238400   -0.0149238100
  -0.0012758800   -0.0003720800    0.0003719900
  -0.0010499500    0.0005581100   -0.0005585600
   0.0054860200   -0.0027184900    0.0027180100
  -0.0000484300   -0.0001112000   -0.0009498500
   0.0001140800    0.0001527100   -0.0009077000
   0.0010590000    0.0000524700   -0.0005482800
  -0.0011035100    0.0021921800    0.0009350000
   0.0018493900   -0.0006742000    0.0006743200
   0.0146522800    0.0148154900   -0.0148154500
   0.0071620300    0.0043516900   -0.0043512400
  -0.0003567800    0.0003998300   -0.0003994100
   0.0010590200    0.0005487400   -0.0000520600
  -0.0011032300   -0.0009345600   -0.0021917100
  -0.0000484100    0.0001103300    0.0009498300
   0.0001141000   -0.0001535500    0.0009076700
  -0.0010499500   -0.0005590300    0.0005585500
   0.0054860000    0.0027175600   -0.0027180400
  -0.0150801300   -0.0149238400    0.0149238600
  -0.0012758900    0.0003717500   -0.0003718800
  -0.0000481100   -0.0009502900   -0.0001107300
   0.0001141000   -0.0009081200    0.0001530900
   0.0010590200   -0.0005478600    0.0000520700
  -0.0011032600    0.0009354500    0.0021917200
   0.0071620700   -0.0043507900    0.0043512200
  -0.0003567800   -0.0003989800    0.0003993900
   0.0018493900    0.0006745400   -0.0006744000
   0.0146523100   -0.0148154500    0.0148154000
   0.0010589700   -0.0000516200    0.0005483000
  -0.0011035200   -0.0021912900   -0.0009349500
  -0.0010490700    0.0005590000    0.0005585700
   0.0054869000   -0.0027175900   -0.0027180300
  -0.0000475200   -0.0001103100    0.0009498500
   0.0001149900    0.0001536000    0.0009076500
  -0.0000477900    0.0009503000   -0.0001108300
   0.0001149800    0.0009081200    0.0001531300
  -0.0150801100    0.0149238300    0.0149238100
  -0.0012749900   -0.0003717500   -0.0003718800
   0.0071611700    0.0043507600    0.0043512200
  -0.0003576600    0.0003989500    0.0003994100
   0.0010581300    0.0005478900    0.0000520700
  -0.0011041400   -0.0009354300    0.0021917300
   0.0010580900    0.0000516200    0.0005483300
  -0.0011038400    0.0021912900   -0.0009350600
   0.0018485000   -0.0006745500   -0.0006743900
   0.0146522900    0.0148154500    0.0148153500

9    
  0.0070710678118655   0.0000000000000000   0.0070710678118655
   0.0002431200    0.0024941200   -0.0016675600
   0.0006652400   -0.0023522500   -0.0016700800
   0.0005657300   -0.0023052400   -0.0016645400
   0.0003609600    0.0026696200   -0.0021818200
  -0.0008920300    0.0003447700   -0.0002229100
  -0.0011262400   -0.0001960600   -0.0001833100
  -0.0009055900   -0.0001187400   -0.0001842000
  -0.0009789000    0.0004027100   -0.0002176400
  -0.0335452100    0.0047499600   -0.0401364600
  -0.0041750100    0.0063422600    0.0012365500
   0.0073676600   -0.0063425600    0.0012366600
  -0.0015288200   -0.0064355700    0.0025608100
  -0.0024302400   -0.0034954100    0.0024318100
   0.0080568600   -0.0035511000    0.0048930000
  -0.0012933900    0.0033187200    0.0048923200
   0.0055950500    0.0034130400    0.0023588200
   0.0048471100   -0.0024321300    0.0067826200
  -0.0062886700   -0.0003692400    0.0052436700
  -0.0050523800    0.0024347000   -0.0029469200
   0.0034247000    0.0002747700   -0.0045623000
   0.0049811500    0.0023078600   -0.0059276600
  -0.0063638600    0.0002982400   -0.0075143600
  -0.0049299100   -0.0024960500    0.0040697100
   0.0033920200   -0.0003060000    0.0023859300
  -0.0019377300    0.0062958000    0.0044478000
   0.0028623900   -0.0035329000   -0.0004751700
  -0.0014698500   -0.0063407900    0.0048881000
  -0.0008344500    0.0034466100   -0.0042597200
   0.0027944600    0.0064247000   -0.0035971300
  -0.0020760800   -0.0034150500    0.0016095900
  -0.0008003000   -0.0064147500   -0.0071545400
  -0.0014139200    0.0034145700    0.0020848000
  -0.0129012300   -0.0148112000   -0.0130996800
  -0.0022593600    0.0007789200    0.0009951900
   0.0012923800   -0.0015799800    0.0012761200
  -0.0007005700   -0.0005896100   -0.0005255600
   0.0010361600    0.0003150100   -0.0021934100
  -0.0005720700   -0.0003813100   -0.0006695900
  -0.0006641600   -0.0002652100   -0.0008211000
  -0.0010213900   -0.0008812900   -0.0010417600
   0.0083182300   -0.0043319400    0.0074024900
   0.0145800400   -0.0145569900   -0.0145224100
   0.0005557400   -0.0007402600   -0.0002443900
  -0.0011139400   -0.0011723900    0.0011372500
   0.0007764000   -0.0000236500   -0.0007880300
  -0.0012990300   -0.0002861400   -0.0022631500
   0.0015667100   -0.0004294100   -0.0014367700
   0.0001917200   -0.0004249700   -0.0006046600
   0.0026005500    0.0014186000    0.0025225500
  -0.0010503700    0.0001517000    0.0001975400
  -0.0141119000    0.0147984600   -0.0141390300
  -0.0018893000   -0.0003305100    0.0002898700
   0.0000910200    0.0006729200   -0.0011551100
  -0.0010029000    0.0009237600   -0.0010526800
   0.0003118700   -0.0007157100   -0.0018253900
  -0.0006077100    0.0003340600   -0.0006203900
   0.0083588500    0.0063245300    0.0075477800
  -0.0008525900    0.0011987300    0.0009098900
   0.0016709600   -0.0002366300    0.0006556700
   0.0143466700    0.0145375000   -0.0142551900
   0.0012525400    0.0004709600   -0.0012296100
  -0.0003583700    0.0012860200   -0.0011459600
   0.0010670500   -0.0000200600   -0.0009660900
  -0.0007349500   -0.0005776100   -0.0017057400
   0.0008517400    0.0001286700    0.0012597500
  -0.0012398600    0.0006053100   -0.0002033000
   0.0003129500   -0.0009286000   -0.0000524900
  -0.0010677300   -0.0009267100    0.0007499900
  -0.0075447600   -0.0094824600    0.0226971400
  -0.0018888900    0.0000988600   -0.0001111300
   0.0006128500   -0.0012086300   -0.0003940000
  -0.0010601800   -0.0009446300    0.0009595900
   0.0009720500   -0.0000907000   -0.0002073900
  -0.0006394500    0.0005217200    0.0014766900
   0.0006528000   -0.0010644800    0.0005771100
   0.0001844200   -0.0004851700    0.0003177500
   0.0035349300    0.0004745200    0.0014815000
   0.0142267500   -0.0151728900    0.0153222100
   0.0013086300   -0.0005015200    0.0011628200
  -0.0008347700   -0.0014264100   -0.0007503800
   0.0000261900    0.0008650800    0.0001634000
  -0.0016358300    0.0000023700    0.0001915000
   0.0011264300   -0.0000587400    0.0010372700
  -0.0006646500    0.0003234300    0.0003356700
   0.0070558200   -0.0030192100    0.0060389300
  -0.0008072300    0.0009032400    0.0007241400
  -0.0147267400    0.0144407100    0.0149420800
  -0.0021412200   -0.0000536200    0.0000950100
   0.0014056300    0.0006209300    0.0002155800
   0.0001939400    0.0004549600    0.0003024700
   0.0002270900    0.0005361500    0.0001228700
  -0.0006521000   -0.0004940900    0.0014577000
   0.0025069900    0.0004450100    0.0022132800
  -0.0011680500    0.0018058700   -0.0000675800
   0.0022789600   -0.0005517600    0.0001883800
   0.0146024100    0.0147979100    0.0145689200

9    
 -0.0070710678118655   0.0000000000000000  -0.0070710678118655
  -0.0002340600   -0.0024963900    0.0016736100
  -0.0006754200    0.0023509800    0.0016656900
  -0.0005592400    0.0023018600    0.0016712300
  -0.0003778700   -0.0026803000    0.0021767900
   0.0008889600   -0.0003476100    0.0002236200
   0.0011273200    0.0001923000    0.0001849200
   0.0009013300    0.0001157500    0.0001840500
   0.0009797200   -0.0004052600    0.0002183700
   0.0462427100    0.0079180000    0.0401475800
  -0.0085145200    0.0063448700   -0.0012375800
   0.0053175900   -0.0063452800   -0.0012374300
  -0.0111614700   -0.0062514600   -0.0025625400
  -0.0044891300   -0.0034226700   -0.0024329000
  -0.0011413400   -0.0033663500   -0.0048943300
  -0.0056257100    0.0035999100   -0.0048950500
   0.0013189900    0.0035032600   -0.0023600600
   0.0078329500    0.0024362500    0.0058933800
  -0.0063977300    0.0003734100    0.0074436300
  -0.0018699000   -0.0024310800   -0.0039811500
   0.0034901300   -0.0002698500   -0.0023537700
   0.0077081600   -0.0023017900   -0.0067483900
  -0.0063231100   -0.0002946400   -0.0051754700
  -0.0019824300    0.0025053700    0.0028505200
   0.0035224300    0.0003109200    0.0045281600
   0.0019468400    0.0063908600    0.0082363500
  -0.0028481600   -0.0033846000   -0.0064300500
   0.0014678700   -0.0063462800    0.0078060500
   0.0008431100    0.0034687600   -0.0026524900
  -0.0027988800    0.0062609700   -0.0090953700
   0.0020804100   -0.0035017700    0.0053113800
   0.0008018600   -0.0062704200   -0.0055335100
   0.0014252400    0.0035017000    0.0048284600
  -0.0167972400   -0.0148810800   -0.0166642500
  -0.0008757800    0.0002869600    0.0000586600
  -0.0002348000   -0.0015503400   -0.0002245100
  -0.0002419800   -0.0003510700   -0.0001545000
   0.0000197300    0.0007514600   -0.0009467800
  -0.0003719600   -0.0003127400   -0.0002781100
  -0.0000283100   -0.0006770500   -0.0001273500
  -0.0007660300   -0.0009017900   -0.0007448100
  -0.0048937900    0.0050442400   -0.0060559900
   0.0151455100   -0.0151621200   -0.0152132200
   0.0003843300   -0.0001949500   -0.0004500700
   0.0000592500   -0.0019574400   -0.0000752900
   0.0001649400   -0.0006550600   -0.0001639000
   0.0002424400    0.0013468300   -0.0008767200
   0.0002243100   -0.0013497800   -0.0003505800
   0.0004969400   -0.0005160800   -0.0003442700
  -0.0015180200    0.0016826100   -0.0014972900
   0.0001048000    0.0007823100   -0.0008886500
  -0.0156164400    0.0149259400   -0.0155944500
  -0.0012484100   -0.0007281400    0.0007698700
  -0.0007814500    0.0002639400    0.0002067800
  -0.0007846800    0.0008675400   -0.0007368000
   0.0007339900   -0.0003447300   -0.0013162500
  -0.0003416300    0.0003523500   -0.0003261800
  -0.0070937300   -0.0050054200   -0.0079094900
  -0.0002051000    0.0019302000    0.0001387100
   0.0014644500   -0.0008273200    0.0003942700
   0.0153839600    0.0151818700   -0.0154643100
   0.0005307300    0.0013077800   -0.0005615100
   0.0010495000   -0.0003455300    0.0001973500
  -0.0001102900    0.0007002500    0.0000178500
  -0.0003186400   -0.0004819200   -0.0014338100
   0.0002064200    0.0009362900    0.0018831700
   0.0002929900   -0.0012881500    0.0011515500
  -0.0010133200   -0.0000076700    0.0010001200
  -0.0007198000   -0.0008546400    0.0010389800
  -0.0224980800   -0.0206117200    0.0066972700
  -0.0012461000    0.0009672400   -0.0009384700
   0.0004460300   -0.0019197700   -0.0006572700
   0.0001131800    0.0000086900   -0.0002810000
  -0.0000247400   -0.0005876900    0.0011562000
  -0.0004154900    0.0005283700    0.0016641000
   0.0011425500   -0.0007173200    0.0012138500
   0.0005085800   -0.0004579000    0.0006295400
  -0.0004249600    0.0006182900   -0.0025071200
   0.0155018600   -0.0145475200    0.0144096700
  -0.0003657100   -0.0004376800   -0.0004708600
  -0.0002206200   -0.0017073100   -0.0003091400
  -0.0007119100    0.0000707100    0.0007892500
  -0.0001500900    0.0017782200    0.0015985100
  -0.0000778100   -0.0010052800    0.0021020100
  -0.0002801700    0.0003606500    0.0006136500
  -0.0062933200    0.0064989300   -0.0073884500
  -0.0001335100    0.0000309400   -0.0000289900
  -0.0150007600    0.0152778500    0.0147941400
  -0.0009961700   -0.0010103100   -0.0011562900
   0.0003809800    0.0011548300    0.0015748200
   0.0004942400    0.0004970600    0.0006472800
   0.0007234300    0.0001489000    0.0008270800
  -0.0004018100   -0.0005644200    0.0016802500
  -0.0016033200    0.0004594600   -0.0015011100
   0.0001121400    0.0013214600   -0.0009847700
   0.0008565500   -0.0005097300   -0.0012386200
   0.0151254900    0.0149280700    0.0151525800

13   
  0.0070710678118655   0.0000000000000000   0.0070710678118655
  -0.0010258600    0.0002387000   -0.0000856100
  -0.0008103800   -0.0003140200   -0.0000904600
  -0.0009117200   -0.0003193000   -0.0000908100
  -0.0010377400    0.0002736600   -0.0003320900
   0.0007401900    0.0023837100   -0.0016484300
   0.0005469000   -0.0024221900   -0.0015298700
   0.0007930700   -0.0024119300   -0.0015248700
   0.0006719800    0.0023854500   -0.0016618400
   0.0073736200    0.0063074300    0.0024324100
  -0.0017447500    0.0064842000    0.0048934500
   0.0085099800   -0.0062520400    0.0048933900
  -0.0042052400   -0.0063889400    0.0023589200
  -0.0434692700   -0.0038322300   -0.0394495800
   0.0055579000   -0.0034558000    0.0011909700
  -0.0025318500    0.0034558700    0.0011909100
   0.0079921400    0.0035046900    0.0023451800
   0.0047792800    0.0024094600    0.0067224600
  -0.0063743100    0.0002741100    0.0052404800
  -0.0050775900   -0.0024223700   -0.0029808600
   0.0034020900   -0.0003220300   -0.0045674300
   0.0048423500   -0.0025244700   -0.0059443700
  -0.0064105600   -0.0003066500   -0.0074986900
  -0.0050487300    0.0023868800    0.0039010400
   0.0033622300    0.0002816900    0.0023886200
   0.0030258100    0.0062634000    0.0091429500
  -0.0019470400   -0.0034635000   -0.0054171100
  -0.0007990800   -0.0063094200    0.0054969000
  -0.0013891100    0.0034969400   -0.0048484100
  -0.0019009900    0.0063307900   -0.0083706900
   0.0028682000   -0.0034292300    0.0063422500
  -0.0013808100   -0.0063453600   -0.0077537700
  -0.0007866600    0.0034568200    0.0026680900
  -0.0143953700   -0.0150659500   -0.0155598700
  -0.0017465800    0.0005093900    0.0003746800
   0.0002964700   -0.0014110900    0.0002196000
  -0.0005727900   -0.0004516100   -0.0004645300
   0.0025153400    0.0005882600    0.0004342600
  -0.0011122100   -0.0000879000   -0.0000158500