phonopy:
  version: 1.13.2
  configuration:
    dim: "1 1 1"
    create_displacements: ".true."

supercell_matrix:
- [   1,   0,   0 ]
- [   0,   1,   0 ]
- [   0,   0,   1 ]

space_group:
  type: "Pm-3m"
  number: 221
  Hall_symbol: "-P 4 2 3"

primitive_cell:
  lattice:
  - [    12.747397687674002,     0.000000000000000,     0.000000000000000 ] # a
  - [     0.000000000000000,    12.747397687674002,     0.000000000000000 ] # b
  - [     0.000000000000000,     0.000000000000000,    12.747397687674002 ] # c
  points:
  - symbol: Sn # 1
    coordinates: [  0.000000000000000,  0.000000000000000,  0.000000000000000 ]
    mass: 118.710000
  - symbol: Si # 2
    coordinates: [  0.500000000000000,  0.000000000000000,  0.000000000000000 ]
    mass: 28.085500
  - symbol: Si # 3
    coordinates: [  0.000000000000000,  0.500000000000000,  0.000000000000000 ]
    mass: 28.085500
  - symbol: Si # 4
    coordinates: [  0.500000000000000,  0.500000000000000,  0.000000000000000 ]
    mass: 28.085500
  - symbol: Si # 5
    coordinates: [  0.000000000000000,  0.000000000000000,  0.500000000000000 ]
    mass: 28.085500
  - symbol: Si # 6
    coordinates: [  0.500000000000000,  0.000000000000000,  0.500000000000000 ]
    mass: 28.085500
  - symbol: Si # 7
    coordinates: [  0.000000000000000,  0.500000000000000,  0.500000000000000 ]
    mass: 28.085500
  - symbol: Si # 8
    coordinates: [  0.500000000000000,  0.500000000000000,  0.500000000000000 ]
    mass: 28.085500
  - symbol: Si # 9
    coordinates: [  0.251402931323951,  0.251402931323951,  0.000000000000000 ]
    mass: 28.085500
  - symbol: Si # 10
    coordinates: [  0.748597068676048,  0.251402931323951,  0.000000000000000 ]
    mass: 28.085500
  - symbol: Si # 11
    coordinates: [  0.251402931323951,  0.748597068676048,  0.000000000000000 ]
    mass: 28.085500
  - symbol: Si # 12
    coordinates: [  0.748597068676048,  0.748597068676048,  0.000000000000000 ]
    mass: 28.085500
  - symbol: Si # 13
    coordinates: [  0.250126683444640,  0.250126683444640,  0.500000000000000 ]
    mass: 28.085500
  - symbol: Si # 14
    coordinates: [  0.749873316555360,  0.250126683444640,  0.500000000000000 ]
    mass: 28.085500
  - symbol: Si # 15
    coordinates: [  0.250126683444640,  0.749873316555360,  0.500000000000000 ]
    mass: 28.085500
  - symbol: Si # 16
    coordinates: [  0.749873316555360,  0.749873316555360,  0.500000000000000 ]
    mass: 28.085500
  - symbol: Si # 17
    coordinates: [  0.251402931323951,  0.000000000000000,  0.251402931323951 ]
    mass: 28.085500
  - symbol: Si # 18
    coordinates: [  0.748597068676048,  0.000000000000000,  0.251402931323951 ]
    mass: 28.085500
  - symbol: Si # 19
    coordinates: [  0.250126683444640,  0.500000000000000,  0.250126683444640 ]
    mass: 28.085500
  - symbol: Si # 20
    coordinates: [  0.749873316555360,  0.500000000000000,  0.250126683444640 ]
    mass: 28.085500
  - symbol: Si # 21
    coordinates: [  0.251402931323951,  0.000000000000000,  0.748597068676048 ]
    mass: 28.085500
  - symbol: Si # 22
    coordinates: [  0.748597068676048,  0.000000000000000,  0.748597068676048 ]
    mass: 28.085500
  - symbol: Si # 23
    coordinates: [  0.250126683444640,  0.500000000000000,  0.749873316555360 ]
    mass: 28.085500
  - symbol: Si # 24
    coordinates: [  0.749873316555360,  0.500000000000000,  0.749873316555360 ]
    mass: 28.085500
  - symbol: Si # 25
    coordinates: [  0.000000000000000,  0.251402931323951,  0.251402931323951 ]
    mass: 28.085500
  - symbol: Si # 26
    coordinates: [  0.500000000000000,  0.250126683444640,  0.250126683444640 ]
    mass: 28.085500
  - symbol: Si # 27
    coordinates: [  0.000000000000000,  0.748597068676048,  0.251402931323951 ]
    mass: 28.085500
  - symbol: Si # 28
    coordinates: [  0.500000000000000,  0.749873316555360,  0.250126683444640 ]
    mass: 28.085500
  - symbol: Si # 29
    coordinates: [  0.000000000000000,  0.251402931323951,  0.748597068676048 ]
    mass: 28.085500
  - symbol: Si # 30
    coordinates: [  0.500000000000000,  0.250126683444640,  0.749873316555360 ]
    mass: 28.085500
  - symbol: Si # 31
    coordinates: [  0.000000000000000,  0.748597068676048,  0.748597068676048 ]
    mass: 28.085500
  - symbol: Si # 32
    coordinates: [  0.500000000000000,  0.749873316555360,  0.749873316555360 ]
    mass: 28.085500
  - symbol: Mg # 33
    coordinates: [  0.129608356610209,  0.129608356610209,  0.129608356610209 ]
    mass: 24.305000
  - symbol: Mg # 34
    coordinates: [  0.624213569325968,  0.125072028859937,  0.125072028859937 ]
    mass: 24.305000
  - symbol: Mg # 35
    coordinates: [  0.125072028859937,  0.624213569325968,  0.125072028859937 ]
    mass: 24.305000
  - symbol: Mg # 36
    coordinates: [  0.624552734191395,  0.624552734191395,  0.124695400285425 ]
    mass: 24.305000
  - symbol: Mg # 37
    coordinates: [  0.125072028859937,  0.125072028859937,  0.624213569325968 ]
    mass: 24.305000
  - symbol: Mg # 38
    coordinates: [  0.624552734191395,  0.124695400285425,  0.624552734191395 ]
    mass: 24.305000
  - symbol: Mg # 39
    coordinates: [  0.124695400285425,  0.624552734191395,  0.624552734191395 ]
    mass: 24.305000
  - symbol: Mg # 40
    coordinates: [  0.625082388905476,  0.625082388905476,  0.625082388905476 ]
    mass: 24.305000
  - symbol: Mg # 41
    coordinates: [  0.375786430674033,  0.125072028859937,  0.125072028859937 ]
    mass: 24.305000
  - symbol: Mg # 42
    coordinates: [  0.870391643389791,  0.129608356610209,  0.129608356610209 ]
    mass: 24.305000
  - symbol: Mg # 43
    coordinates: [  0.375447265808605,  0.624552734191395,  0.124695400285425 ]
    mass: 24.305000
  - symbol: Mg # 44
    coordinates: [  0.874927971140063,  0.624213569325968,  0.125072028859937 ]
    mass: 24.305000
  - symbol: Mg # 45
    coordinates: [  0.375447265808605,  0.124695400285425,  0.624552734191395 ]
    mass: 24.305000
  - symbol: Mg # 46
    coordinates: [  0.874927971140063,  0.125072028859937,  0.624213569325968 ]
    mass: 24.305000
  - symbol: Mg # 47
    coordinates: [  0.374917611094524,  0.625082388905476,  0.625082388905476 ]
    mass: 24.305000
  - symbol: Mg # 48
    coordinates: [  0.875304599714575,  0.624552734191395,  0.624552734191395 ]
    mass: 24.305000
  - symbol: Mg # 49
    coordinates: [  0.125072028859937,  0.375786430674033,  0.125072028859937 ]
    mass: 24.305000
  - symbol: Mg # 50
    coordinates: [  0.624552734191395,  0.375447265808605,  0.124695400285425 ]
    mass: 24.305000
  - symbol: Mg # 51
    coordinates: [  0.129608356610209,  0.870391643389791,  0.129608356610209 ]
    mass: 24.305000
  - symbol: Mg # 52
    coordinates: [  0.624213569325968,  0.874927971140063,  0.125072028859937 ]
    mass: 24.305000
  - symbol: Mg # 53
    coordinates: [  0.124695400285425,  0.375447265808605,  0.624552734191395 ]
    mass: 24.305000
  - symbol: Mg # 54
    coordinates: [  0.625082388905476,  0.374917611094524,  0.625082388905476 ]
    mass: 24.305000
  - symbol: Mg # 55
    coordinates: [  0.125072028859937,  0.874927971140063,  0.624213569325968 ]
    mass: 24.305000
  - symbol: Mg # 56
    coordinates: [  0.624552734191395,  0.875304599714575,  0.624552734191395 ]
    mass: 24.305000
  - symbol: Mg # 57
    coordinates: [  0.375447265808605,  0.375447265808605,  0.124695400285425 ]
    mass: 24.305000
  - symbol: Mg # 58
    coordinates: [  0.874927971140063,  0.375786430674033,  0.125072028859937 ]
    mass: 24.305000
  - symbol: Mg # 59
    coordinates: [  0.375786430674033,  0.874927971140063,  0.125072028859937 ]
    mass: 24.305000
  - symbol: Mg # 60
    coordinates: [  0.870391643389791,  0.870391643389791,  0.129608356610209 ]
    mass: 24.305000
  - symbol: Mg # 61
    coordinates: [  0.374917611094524,  0.374917611094524,  0.625082388905476 ]
    mass: 24.305000
  - symbol: Mg # 62
    coordinates: [  0.875304599714575,  0.375447265808605,  0.624552734191395 ]
    mass: 24.305000
  - symbol: Mg # 63
    coordinates: [  0.375447265808605,  0.875304599714575,  0.624552734191395 ]
    mass: 24.305000
  - symbol: Mg # 64
    coordinates: [  0.874927971140063,  0.874927971140063,  0.624213569325968 ]
    mass: 24.305000
  - symbol: Mg # 65
    coordinates: [  0.125072028859937,  0.125072028859937,  0.375786430674033 ]
    mass: 24.305000
  - symbol: Mg # 66
    coordinates: [  0.624552734191395,  0.124695400285425,  0.375447265808605 ]
    mass: 24.305000
  - symbol: Mg # 67
    coordinates: [  0.124695400285425,  0.624552734191395,  0.375447265808605 ]
    mass: 24.305000
  - symbol: Mg # 68
    coordinates: [  0.625082388905476,  0.625082388905476,  0.374917611094524 ]
    mass: 24.305000
  - symbol: Mg # 69
    coordinates: [  0.129608356610209,  0.129608356610209,  0.870391643389791 ]
    mass: 24.305000
  - symbol: Mg # 70
    coordinates: [  0.624213569325968,  0.125072028859937,  0.874927971140063 ]
    mass: 24.305000
  - symbol: Mg # 71
    coordinates: [  0.125072028859937,  0.624213569325968,  0.874927971140063 ]
    mass: 24.305000
  - symbol: Mg # 72
    coordinates: [  0.624552734191395,  0.624552734191395,  0.875304599714575 ]
    mass: 24.305000
  - symbol: Mg # 73
    coordinates: [  0.375447265808605,  0.124695400285425,  0.375447265808605 ]
    mass: 24.305000
  - symbol: Mg # 74
    coordinates: [  0.874927971140063,  0.125072028859937,  0.375786430674033 ]
    mass: 24.305000
  - symbol: Mg # 75
    coordinates: [  0.374917611094524,  0.625082388905476,  0.374917611094524 ]
    mass: 24.305000
  - symbol: Mg # 76
    coordinates: [  0.875304599714575,  0.624552734191395,  0.375447265808605 ]
    mass: 24.305000
  - symbol: Mg # 77
    coordinates: [  0.375786430674033,  0.125072028859937,  0.874927971140063 ]
    mass: 24.305000
  - symbol: Mg # 78
    coordinates: [  0.870391643389791,  0.129608356610209,  0.870391643389791 ]
    mass: 24.305000
  - symbol: Mg # 79
    coordinates: [  0.375447265808605,  0.624552734191395,  0.875304599714575 ]
    mass: 24.305000
  - symbol: Mg # 80
    coordinates: [  0.874927971140063,  0.624213569325968,  0.874927971140063 ]
    mass: 24.305000
  - symbol: Mg # 81
    coordinates: [  0.124695400285425,  0.375447265808605,  0.375447265808605 ]
    mass: 24.305000
  - symbol: Mg # 82
    coordinates: [  0.625082388905476,  0.374917611094524,  0.374917611094524 ]
    mass: 24.305000
  - symbol: Mg # 83
    coordinates: [  0.125072028859937,  0.874927971140063,  0.375786430674033 ]
    mass: 24.305000
  - symbol: Mg # 84
    coordinates: [  0.624552734191395,  0.875304599714575,  0.375447265808605 ]
    mass: 24.305000
  - symbol: Mg # 85
    coordinates: [  0.125072028859937,  0.375786430674033,  0.874927971140063 ]
    mass: 24.305000
  - symbol: Mg # 86
    coordinates: [  0.624552734191395,  0.375447265808605,  0.875304599714575 ]
    mass: 24.305000
  - symbol: Mg # 87
    coordinates: [  0.129608356610209,  0.870391643389791,  0.870391643389791 ]
    mass: 24.305000
  - symbol: Mg # 88
    coordinates: [  0.624213569325968,  0.874927971140063,  0.874927971140063 ]
    mass: 24.305000
  - symbol: Mg # 89
    coordinates: [  0.374917611094524,  0.374917611094524,  0.374917611094524 ]
    mass: 24.305000
  - symbol: Mg # 90
    coordinates: [  0.875304599714575,  0.375447265808605,  0.375447265808605 ]
    mass: 24.305000
  - symbol: Mg # 91
    coordinates: [  0.375447265808605,  0.875304599714575,  0.375447265808605 ]
    mass: 24.305000
  - symbol: Mg # 92
    coordinates: [  0.874927971140063,  0.874927971140063,  0.375786430674033 ]
    mass: 24.305000
  - symbol: Mg # 93
    coordinates: [  0.375447265808605,  0.375447265808605,  0.875304599714575 ]
    mass: 24.305000
  - symbol: Mg # 94
    coordinates: [  0.874927971140063,  0.375786430674033,  0.874927971140063 ]
    mass: 24.305000
  - symbol: Mg # 95
    coordinates: [  0.375786430674033,  0.874927971140063,  0.874927971140063 ]
    mass: 24.305000
  - symbol: Mg # 96
    coordinates: [  0.870391643389791,  0.870391643389791,  0.870391643389791 ]
    mass: 24.305000
  reciprocal_lattice: # without 2pi
  - [     0.078447383889729,     0.000000000000000,     0.000000000000000 ] # a*
  - [     0.000000000000000,     0.078447383889729,     0.000000000000000 ] # b*
  - [     0.000000000000000,     0.000000000000000,     0.078447383889729 ] # c*

unit_cell:
  lattice:
  - [    12.747397687674002,     0.000000000000000,     0.000000000000000 ] # a
  - [     0.000000000000000,    12.747397687674002,     0.000000000000000 ] # b
  - [     0.000000000000000,     0.000000000000000,    12.747397687674002 ] # c
  points:
  - symbol: Sn # 1
    coordinates: [  0.000000000000000,  0.000000000000000,  0.000000000000000 ]
    mass: 118.710000
    reduced_to: 1
  - symbol: Si # 2
    coordinates: [  0.500000000000000,  0.000000000000000,  0.000000000000000 ]
    mass: 28.085500
    reduced_to: 2
  - symbol: Si # 3
    coordinates: [  0.000000000000000,  0.500000000000000,  0.000000000000000 ]
    mass: 28.085500
    reduced_to: 3
  - symbol: Si # 4
    coordinates: [  0.500000000000000,  0.500000000000000,  0.000000000000000 ]
    mass: 28.085500
    reduced_to: 4
  - symbol: Si # 5
    coordinates: [  0.000000000000000,  0.000000000000000,  0.500000000000000 ]
    mass: 28.085500
    reduced_to: 5
  - symbol: Si # 6
    coordinates: [  0.500000000000000,  0.000000000000000,  0.500000000000000 ]
    mass: 28.085500
    reduced_to: 6
  - symbol: Si # 7
    coordinates: [  0.000000000000000,  0.500000000000000,  0.500000000000000 ]
    mass: 28.085500
    reduced_to: 7
  - symbol: Si # 8
    coordinates: [  0.500000000000000,  0.500000000000000,  0.500000000000000 ]
    mass: 28.085500
    reduced_to: 8
  - symbol: Si # 9
    coordinates: [  0.251402931323951,  0.251402931323951,  0.000000000000000 ]
    mass: 28.085500
    reduced_to: 9
  - symbol: Si # 10
    coordinates: [  0.748597068676048,  0.251402931323951,  0.000000000000000 ]
    mass: 28.085500
    reduced_to: 10
  - symbol: Si # 11
    coordinates: [  0.251402931323951,  0.748597068676048,  0.000000000000000 ]
    mass: 28.085500
    reduced_to: 11
  - symbol: Si # 12
    coordinates: [  0.748597068676048,  0.748597068676048,  0.000000000000000 ]
    mass: 28.085500
    reduced_to: 12
  - symbol: Si # 13
    coordinates: [  0.250126683444640,  0.250126683444640,  0.500000000000000 ]
    mass: 28.085500
    reduced_to: 13
  - symbol: Si # 14
    coordinates: [  0.749873316555360,  0.250126683444640,  0.500000000000000 ]
    mass: 28.085500
    reduced_to: 14
  - symbol: Si # 15
    coordinates: [  0.250126683444640,  0.749873316555360,  0.500000000000000 ]
    mass: 28.085500
    reduced_to: 15
  - symbol: Si # 16
    coordinates: [  0.749873316555360,  0.749873316555360,  0.500000000000000 ]
    mass: 28.085500
    reduced_to: 16
  - symbol: Si # 17
    coordinates: [  0.251402931323951,  0.000000000000000,  0.251402931323951 ]
    mass: 28.085500
    reduced_to: 17
  - symbol: Si # 18
    coordinates: [  0.748597068676048,  0.000000000000000,  0.251402931323951 ]
    mass: 28.085500
    reduced_to: 18
  - symbol: Si # 19
    coordinates: [  0.250126683444640,  0.500000000000000,  0.250126683444640 ]
    mass: 28.085500
    reduced_to: 19
  - symbol: Si # 20
    coordinates: [  0.749873316555360,  0.500000000000000,  0.250126683444640 ]
    mass: 28.085500
    reduced_to: 20
  - symbol: Si # 21
    coordinates: [  0.251402931323951,  0.000000000000000,  0.748597068676048 ]
    mass: 28.085500
    reduced_to: 21
  - symbol: Si # 22
    coordinates: [  0.748597068676048,  0.000000000000000,  0.748597068676048 ]
    mass: 28.085500
    reduced_to: 22
  - symbol: Si # 23
    coordinates: [  0.250126683444640,  0.500000000000000,  0.749873316555360 ]
    mass: 28.085500
    reduced_to: 23
  - symbol: Si # 24
    coordinates: [  0.749873316555360,  0.500000000000000,  0.749873316555360 ]
    mass: 28.085500
    reduced_to: 24
  - symbol: Si # 25
    coordinates: [  0.000000000000000,  0.251402931323951,  0.251402931323951 ]
    mass: 28.085500
    reduced_to: 25
  - symbol: Si # 26
    coordinates: [  0.500000000000000,  0.250126683444640,  0.250126683444640 ]
    mass: 28.085500
    reduced_to: 26
  - symbol: Si # 27
    coordinates: [  0.000000000000000,  0.748597068676048,  0.251402931323951 ]
    mass: 28.085500
    reduced_to: 27
  - symbol: Si # 28
    coordinates: [  0.500000000000000,  0.749873316555360,  0.250126683444640 ]
    mass: 28.085500
    reduced_to: 28
  - symbol: Si # 29
    coordinates: [  0.000000000000000,  0.251402931323951,  0.748597068676048 ]
    mass: 28.085500
    reduced_to: 29
  - symbol: Si # 30
    coordinates: [  0.500000000000000,  0.250126683444640,  0.749873316555360 ]
    mass: 28.085500
    reduced_to: 30
  - symbol: Si # 31
    coordinates: [  0.000000000000000,  0.748597068676048,  0.748597068676048 ]
    mass: 28.085500
    reduced_to: 31
  - symbol: Si # 32
    coordinates: [  0.500000000000000,  0.749873316555360,  0.749873316555360 ]
    mass: 28.085500
    reduced_to: 32
  - symbol: Mg # 33
    coordinates: [  0.129608356610209,  0.129608356610209,  0.129608356610209 ]
    mass: 24.305000
    reduced_to: 33
  - symbol: Mg # 34
    coordinates: [  0.624213569325968,  0.125072028859937,  0.125072028859937 ]
    mass: 24.305000
    reduced_to: 34
  - symbol: Mg # 35
    coordinates: [  0.125072028859937,  0.624213569325968,  0.125072028859937 ]
    mass: 24.305000
    reduced_to: 35
  - symbol: Mg # 36
    coordinates: [  0.624552734191395,  0.624552734191395,  0.124695400285425 ]
    mass: 24.305000
    reduced_to: 36
  - symbol: Mg # 37
    coordinates: [  0.125072028859937,  0.125072028859937,  0.624213569325968 ]
    mass: 24.305000
    reduced_to: 37
  - symbol: Mg # 38
    coordinates: [  0.624552734191395,  0.124695400285425,  0.624552734191395 ]
    mass: 24.305000
    reduced_to: 38
  - symbol: Mg # 39
    coordinates: [  0.124695400285425,  0.624552734191395,  0.624552734191395 ]
    mass: 24.305000
    reduced_to: 39
  - symbol: Mg # 40
    coordinates: [  0.625082388905476,  0.625082388905476,  0.625082388905476 ]
    mass: 24.305000
    reduced_to: 40
  - symbol: Mg # 41
    coordinates: [  0.375786430674033,  0.125072028859937,  0.125072028859937 ]
    mass: 24.305000
    reduced_to: 41
  - symbol: Mg # 42
    coordinates: [  0.870391643389791,  0.129608356610209,  0.129608356610209 ]
    mass: 24.305000
    reduced_to: 42
  - symbol: Mg # 43
    coordinates: [  0.375447265808605,  0.624552734191395,  0.124695400285425 ]
    mass: 24.305000
    reduced_to: 43
  - symbol: Mg # 44
    coordinates: [  0.874927971140063,  0.624213569325968,  0.125072028859937 ]
    mass: 24.305000
    reduced_to: 44
  - symbol: Mg # 45
    coordinates: [  0.375447265808605,  0.124695400285425,  0.624552734191395 ]
    mass: 24.305000
    reduced_to: 45
  - symbol: Mg # 46
    coordinates: [  0.874927971140063,  0.125072028859937,  0.624213569325968 ]
    mass: 24.305000
    reduced_to: 46
  - symbol: Mg # 47
    coordinates: [  0.374917611094524,  0.625082388905476,  0.625082388905476 ]
    mass: 24.305000
    reduced_to: 47
  - symbol: Mg # 48
    coordinates: [  0.875304599714575,  0.624552734191395,  0.624552734191395 ]
    mass: 24.305000
    reduced_to: 48
  - symbol: Mg # 49
    coordinates: [  0.125072028859937,  0.375786430674033,  0.125072028859937 ]
    mass: 24.305000
    reduced_to: 49
  - symbol: Mg # 50
    coordinates: [  0.624552734191395,  0.375447265808605,  0.124695400285425 ]
    mass: 24.305000
    reduced_to: 50
  - symbol: Mg # 51
    coordinates: [  0.129608356610209,  0.870391643389791,  0.129608356610209 ]
    mass: 24.305000
    reduced_to: 51
  - symbol: Mg # 52
    coordinates: [  0.624213569325968,  0.874927971140063,  0.125072028859937 ]
    mass: 24.305000
    reduced_to: 52
  - symbol: Mg # 53
    coordinates: [  0.124695400285425,  0.375447265808605,  0.624552734191395 ]
    mass: 24.305000
    reduced_to: 53
  - symbol: Mg # 54
    coordinates: [  0.625082388905476,  0.374917611094524,  0.625082388905476 ]
    mass: 24.305000
    reduced_to: 54
  - symbol: Mg # 55
    coordinates: [  0.125072028859937,  0.874927971140063,  0.624213569325968 ]
    mass: 24.305000
    reduced_to: 55
  - symbol: Mg # 56
    coordinates: [  0.624552734191395,  0.875304599714575,  0.624552734191395 ]
    mass: 24.305000
    reduced_to: 56
  - symbol: Mg # 57
    coordinates: [  0.375447265808605,  0.375447265808605,  0.124695400285425 ]
    mass: 24.305000
    reduced_to: 57
  - symbol: Mg # 58
    coordinates: [  0.874927971140063,  0.375786430674033,  0.125072028859937 ]
    mass: 24.305000
    reduced_to: 58
  - symbol: Mg # 59
    coordinates: [  0.375786430674033,  0.874927971140063,  0.125072028859937 ]
    mass: 24.305000
    reduced_to: 59
  - symbol: Mg # 60
    coordinates: [  0.870391643389791,  0.870391643389791,  0.129608356610209 ]
    mass: 24.305000
    reduced_to: 60
  - symbol: Mg # 61
    coordinates: [  0.374917611094524,  0.374917611094524,  0.625082388905476 ]
    mass: 24.305000
    reduced_to: 61
  - symbol: Mg # 62
    coordinates: [  0.875304599714575,  0.375447265808605,  0.624552734191395 ]
    mass: 24.305000
    reduced_to: 62
  - symbol: Mg # 63
    coordinates: [  0.375447265808605,  0.875304599714575,  0.624552734191395 ]
    mass: 24.305000
    reduced_to: 63
  - symbol: Mg # 64
    coordinates: [  0.874927971140063,  0.874927971140063,  0.624213569325968 ]
    mass: 24.305000
    reduced_to: 64
  - symbol: Mg # 65
    coordinates: [  0.125072028859937,  0.125072028859937,  0.375786430674033 ]
    mass: 24.305000
    reduced_to: 65
  - symbol: Mg # 66
    coordinates: [  0.624552734191395,  0.124695400285425,  0.375447265808605 ]
    mass: 24.305000
    reduced_to: 66
  - symbol: Mg # 67
    coordinates: [  0.124695400285425,  0.624552734191395,  0.375447265808605 ]
    mass: 24.305000
    reduced_to: 67
  - symbol: Mg # 68
    coordinates: [  0.625082388905476,  0.625082388905476,  0.374917611094524 ]
    mass: 24.305000
    reduced_to: 68
  - symbol: Mg # 69
    coordinates: [  0.129608356610209,  0.129608356610209,  0.870391643389791 ]
    mass: 24.305000
    reduced_to: 69
  - symbol: Mg # 70
    coordinates: [  0.624213569325968,  0.125072028859937,  0.874927971140063 ]
    mass: 24.305000
    reduced_to: 70
  - symbol: Mg # 71
    coordinates: [  0.125072028859937,  0.624213569325968,  0.874927971140063 ]
    mass: 24.305000
    reduced_to: 71
  - symbol: Mg # 72
    coordinates: [  0.624552734191395,  0.624552734191395,  0.875304599714575 ]
    mass: 24.305000
    reduced_to: 72
  - symbol: Mg # 73
    coordinates: [  0.375447265808605,  0.124695400285425,  0.375447265808605 ]
    mass: 24.305000
    reduced_to: 73
  - symbol: Mg # 74
    coordinates: [  0.874927971140063,  0.125072028859937,  0.375786430674033 ]
    mass: 24.305000
    reduced_to: 74
  - symbol: Mg # 75
    coordinates: [  0.374917611094524,  0.625082388905476,  0.374917611094524 ]
    mass: 24.305000
    reduced_to: 75
  - symbol: Mg # 76
    coordinates: [  0.875304599714575,  0.624552734191395,  0.375447265808605 ]
    mass: 24.305000
    reduced_to: 76
  - symbol: Mg # 77
    coordinates: [  0.375786430674033,  0.125072028859937,  0.874927971140063 ]
    mass: 24.305000
    reduced_to: 77
  - symbol: Mg # 78
    coordinates: [  0.870391643389791,  0.129608356610209,  0.870391643389791 ]
    mass: 24.305000
    reduced_to: 78
  - symbol: Mg # 79
    coordinates: [  0.375447265808605,  0.624552734191395,  0.875304599714575 ]
    mass: 24.305000
    reduced_to: 79
  - symbol: Mg # 80
    coordinates: [  0.874927971140063,  0.624213569325968,  0.874927971140063 ]
    mass: 24.305000
    reduced_to: 80
  - symbol: Mg # 81
    coordinates: [  0.124695400285425,  0.375447265808605,  0.375447265808605 ]
    mass: 24.305000
    reduced_to: 81
  - symbol: Mg # 82
    coordinates: [  0.625082388905476,  0.374917611094524,  0.374917611094524 ]
    mass: 24.305000
    reduced_to: 82
  - symbol: Mg # 83
    coordinates: [  0.125072028859937,  0.874927971140063,  0.375786430674033 ]
    mass: 24.305000
    reduced_to: 83
  - symbol: Mg # 84
    coordinates: [  0.624552734191395,  0.875304599714575,  0.375447265808605 ]
    mass: 24.305000
    reduced_to: 84
  - symbol: Mg # 85
    coordinates: [  0.125072028859937,  0.375786430674033,  0.874927971140063 ]
    mass: 24.305000
    reduced_to: 85
  - symbol: Mg # 86
    coordinates: [  0.624552734191395,  0.375447265808605,  0.875304599714575 ]
    mass: 24.305000
    reduced_to: 86
  - symbol: Mg # 87
    coordinates: [  0.129608356610209,  0.870391643389791,  0.870391643389791 ]
    mass: 24.305000
    reduced_to: 87
  - symbol: Mg # 88
    coordinates: [  0.624213569325968,  0.874927971140063,  0.874927971140063 ]
    mass: 24.305000
    reduced_to: 88
  - symbol: Mg # 89
    coordinates: [  0.374917611094524,  0.374917611094524,  0.374917611094524 ]
    mass: 24.305000
    reduced_to: 89
  - symbol: Mg # 90
    coordinates: [  0.875304599714575,  0.375447265808605,  0.375447265808605 ]
    mass: 24.305000
    reduced_to: 90
  - symbol: Mg # 91
    coordinates: [  0.375447265808605,  0.875304599714575,  0.375447265808605 ]
    mass: 24.305000
    reduced_to: 91
  - symbol: Mg # 92
    coordinates: [  0.874927971140063,  0.874927971140063,  0.375786430674033 ]
    mass: 24.305000
    reduced_to: 92
  - symbol: Mg # 93
    coordinates: [  0.375447265808605,  0.375447265808605,  0.875304599714575 ]
    mass: 24.305000
    reduced_to: 93
  - symbol: Mg # 94
    coordinates: [  0.874927971140063,  0.375786430674033,  0.874927971140063 ]
    mass: 24.305000
    reduced_to: 94
  - symbol: Mg # 95
    coordinates: [  0.375786430674033,  0.874927971140063,  0.874927971140063 ]
    mass: 24.305000
    reduced_to: 95
  - symbol: Mg # 96
    coordinates: [  0.870391643389791,  0.870391643389791,  0.870391643389791 ]
    mass: 24.305000
    reduced_to: 96

supercell:
  lattice:
  - [    12.747397687674002,     0.000000000000000,     0.000000000000000 ] # a
  - [     0.000000000000000,    12.747397687674002,     0.000000000000000 ] # b
  - [     0.000000000000000,     0.000000000000000,    12.747397687674002 ] # c
  points:
  - symbol: Sn # 1
    coordinates: [  0.000000000000000,  0.000000000000000,  0.000000000000000 ]
    mass: 118.710000
    reduced_to: 1
  - symbol: Si # 2
    coordinates: [  0.500000000000000,  0.000000000000000,  0.000000000000000 ]
    mass: 28.085500
    reduced_to: 2
  - symbol: Si # 3
    coordinates: [  0.000000000000000,  0.500000000000000,  0.000000000000000 ]
    mass: 28.085500
    reduced_to: 3
  - symbol: Si # 4
    coordinates: [  0.500000000000000,  0.500000000000000,  0.000000000000000 ]
    mass: 28.085500
    reduced_to: 4
  - symbol: Si # 5
    coordinates: [  0.000000000000000,  0.000000000000000,  0.500000000000000 ]
    mass: 28.085500
    reduced_to: 5
  - symbol: Si # 6
    coordinates: [  0.500000000000000,  0.000000000000000,  0.500000000000000 ]
    mass: 28.085500
    reduced_to: 6
  - symbol: Si # 7
    coordinates: [  0.000000000000000,  0.500000000000000,  0.500000000000000 ]
    mass: 28.085500
    reduced_to: 7
  - symbol: Si # 8
    coordinates: [  0.500000000000000,  0.500000000000000,  0.500000000000000 ]
    mass: 28.085500
    reduced_to: 8
  - symbol: Si # 9
    coordinates: [  0.251402931323951,  0.251402931323951,  0.000000000000000 ]
    mass: 28.085500
    reduced_to: 9
  - symbol: Si # 10
    coordinates: [  0.748597068676048,  0.251402931323951,  0.000000000000000 ]
    mass: 28.085500
    reduced_to: 10
  - symbol: Si # 11
    coordinates: [  0.251402931323951,  0.748597068676048,  0.000000000000000 ]
    mass: 28.085500
    reduced_to: 11
  - symbol: Si # 12
    coordinates: [  0.748597068676048,  0.748597068676048,  0.000000000000000 ]
    mass: 28.085500
    reduced_to: 12
  - symbol: Si # 13
    coordinates: [  0.250126683444640,  0.250126683444640,  0.500000000000000 ]
    mass: 28.085500
    reduced_to: 13
  - symbol: Si # 14
    coordinates: [  0.749873316555360,  0.250126683444640,  0.500000000000000 ]
    mass: 28.085500
    reduced_to: 14
  - symbol: Si # 15
    coordinates: [  0.250126683444640,  0.749873316555360,  0.500000000000000 ]
    mass: 28.085500
    reduced_to: 15
  - symbol: Si # 16
    coordinates: [  0.749873316555360,  0.749873316555360,  0.500000000000000 ]
    mass: 28.085500
    reduced_to: 16
  - symbol: Si # 17
    coordinates: [  0.251402931323951,  0.000000000000000,  0.251402931323951 ]
    mass: 28.085500
    reduced_to: 17
  - symbol: Si # 18
    coordinates: [  0.748597068676048,  0.000000000000000,  0.251402931323951 ]
    mass: 28.085500
    reduced_to: 18
  - symbol: Si # 19
    coordinates: [  0.250126683444640,  0.500000000000000,  0.250126683444640 ]
    mass: 28.085500
    reduced_to: 19
  - symbol: Si # 20
    coordinates: [  0.749873316555360,  0.500000000000000,  0.250126683444640 ]
    mass: 28.085500
    reduced_to: 20
  - symbol: Si # 21
    coordinates: [  0.251402931323951,  0.000000000000000,  0.748597068676048 ]
    mass: 28.085500
    reduced_to: 21
  - symbol: Si # 22
    coordinates: [  0.748597068676048,  0.000000000000000,  0.748597068676048 ]
    mass: 28.085500
    reduced_to: 22
  - symbol: Si # 23
    coordinates: [  0.250126683444640,  0.500000000000000,  0.749873316555360 ]
    mass: 28.085500
    reduced_to: 23
  - symbol: Si # 24
    coordinates: [  0.749873316555360,  0.500000000000000,  0.749873316555360 ]
    mass: 28.085500
    reduced_to: 24
  - symbol: Si # 25
    coordinates: [  0.000000000000000,  0.251402931323951,  0.251402931323951 ]
    mass: 28.085500
    reduced_to: 25
  - symbol: Si # 26
    coordinates: [  0.500000000000000,  0.250126683444640,  0.250126683444640 ]
    mass: 28.085500
    reduced_to: 26
  - symbol: Si # 27
    coordinates: [  0.000000000000000,  0.748597068676048,  0.251402931323951 ]
    mass: 28.085500
    reduced_to: 27
  - symbol: Si # 28