96   
20   

1    
  0.0100000000000000   0.0000000000000000   0.0000000000000000
  -0.0740161500    0.0000000000   -0.0000000000
   0.0007107000    0.0000000000   -0.0000000000
  -0.0003012200    0.0000000000   -0.0000000000
   0.0022076700    0.0000000000   -0.0000000000
  -0.0003012200    0.0000000000   -0.0000000000
   0.0022076700    0.0000000000   -0.0000000000
   0.0000482700    0.0000000000   -0.0000000000
   0.0003452700    0.0000000000   -0.0000000000
   0.0089207700    0.0097131300   -0.0000000000
  -0.0055827000    0.0047960300   -0.0000000000
   0.0089207700   -0.0097131300   -0.0000000000
  -0.0055827000   -0.0047960300   -0.0000000000
   0.0037417700    0.0041543400   -0.0000000000
  -0.0040321800    0.0036218000   -0.0000000000
   0.0037417700   -0.0041543400   -0.0000000000
  -0.0040321800   -0.0036218000   -0.0000000000
   0.0089207700    0.0000000000    0.0097131300
  -0.0055827000    0.0000000000    0.0047960300
   0.0037417700    0.0000000000    0.0041543400
  -0.0040321800    0.0000000000    0.0036218000
   0.0089207700    0.0000000000   -0.0097131300
  -0.0055827000    0.0000000000   -0.0047960300
   0.0037417700    0.0000000000   -0.0041543400
  -0.0040321800    0.0000000000   -0.0036218000
  -0.0008774600    0.0072476200    0.0072476200
   0.0002495800    0.0038871400    0.0038871400
  -0.0008774600   -0.0072476200    0.0072476200
   0.0002495800   -0.0038871400    0.0038871400
  -0.0008774600    0.0072476200   -0.0072476200
   0.0002495800    0.0038871400   -0.0038871400
  -0.0008774600   -0.0072476200   -0.0072476200
   0.0002495800   -0.0038871400   -0.0038871400
   0.0078652000    0.0075558900    0.0075558900
  -0.0064034000    0.0044417900    0.0044417900
   0.0048725800   -0.0056601600    0.0041663700
  -0.0057957800   -0.0056111900    0.0040428200
   0.0048725800    0.0041663700   -0.0056601600
  -0.0057957800    0.0040428200   -0.0056111900
   0.0036258800   -0.0054730100   -0.0054730100
   0.0029700600    0.0031692000    0.0031692000
   0.0053467600    0.0044676300    0.0044676300
   0.0078845300   -0.0074717000   -0.0074717000
   0.0050274400   -0.0052139900    0.0028385100
  -0.0040392300   -0.0060912000    0.0047423500
   0.0050274400    0.0028385100   -0.0052139900
  -0.0040392300    0.0047423500   -0.0060912000
  -0.0033027200    0.0031027600    0.0031027600
  -0.0032613400   -0.0053502600   -0.0053502600
   0.0048725800    0.0056601600    0.0041663700
  -0.0057957800    0.0056111900    0.0040428200
   0.0078652000   -0.0075558900    0.0075558900
  -0.0064034000   -0.0044417900    0.0044417900
   0.0036258800    0.0054730100   -0.0054730100
   0.0029700600   -0.0031692000    0.0031692000
   0.0048725800   -0.0041663700   -0.0056601600
  -0.0057957800   -0.0040428200   -0.0056111900
   0.0050274400    0.0052139900    0.0028385100
  -0.0040392300    0.0060912000    0.0047423500
   0.0053467600   -0.0044676300    0.0044676300
   0.0078845300    0.0074717000   -0.0074717000
  -0.0033027200   -0.0031027600    0.0031027600
  -0.0032613400    0.0053502600   -0.0053502600
   0.0050274400   -0.0028385100   -0.0052139900
  -0.0040392300   -0.0047423500   -0.0060912000
   0.0048725800    0.0041663700    0.0056601600
  -0.0057957800    0.0040428200    0.0056111900
   0.0036258800   -0.0054730100    0.0054730100
   0.0029700600    0.0031692000   -0.0031692000
   0.0078652000    0.0075558900   -0.0075558900
  -0.0064034000    0.0044417900   -0.0044417900
   0.0048725800   -0.0056601600   -0.0041663700
  -0.0057957800   -0.0056111900   -0.0040428200
   0.0050274400    0.0028385100    0.0052139900
  -0.0040392300    0.0047423500    0.0060912000
  -0.0033027200    0.0031027600   -0.0031027600
  -0.0032613400   -0.0053502600    0.0053502600
   0.0053467600    0.0044676300   -0.0044676300
   0.0078845300   -0.0074717000    0.0074717000
   0.0050274400   -0.0052139900   -0.0028385100
  -0.0040392300   -0.0060912000   -0.0047423500
   0.0036258800    0.0054730100    0.0054730100
   0.0029700600   -0.0031692000   -0.0031692000
   0.0048725800   -0.0041663700    0.0056601600
  -0.0057957800   -0.0040428200    0.0056111900
   0.0048725800    0.0056601600   -0.0041663700
  -0.0057957800    0.0056111900   -0.0040428200
   0.0078652000   -0.0075558900   -0.0075558900
  -0.0064034000   -0.0044417900   -0.0044417900
  -0.0033027200   -0.0031027600   -0.0031027600
  -0.0032613400    0.0053502600    0.0053502600
   0.0050274400   -0.0028385100    0.0052139900
  -0.0040392300   -0.0047423500    0.0060912000
   0.0050274400    0.0052139900   -0.0028385100
  -0.0040392300    0.0060912000   -0.0047423500
   0.0053467600   -0.0044676300   -0.0044676300
   0.0078845300    0.0074717000    0.0074717000

2    
  0.0070710678118655   0.0070710678118655   0.0000000000000000
   0.0005046500   -0.0002098400   -0.0000000000
  -0.0460192800   -0.0463687400   -0.0000000000
   0.0015883300    0.0015882900   -0.0000000000
  -0.0002467800    0.0005910400   -0.0000000000
   0.0015883600    0.0000038000   -0.0000000000
  -0.0002468000   -0.0002531200   -0.0000000000
   0.0002585000    0.0002529500   -0.0000000000
  -0.0000080600    0.0016032100   -0.0000000000
   0.0066969600    0.0067166100   -0.0000000000
  -0.0040752900    0.0103844300   -0.0000000000
   0.0104109000   -0.0041331700   -0.0000000000
  -0.0078037400   -0.0077862800   -0.0000000000
   0.0035761700    0.0035658100   -0.0000000000
  -0.0037682600    0.0040058900   -0.0000000000
   0.0040069900   -0.0037687500   -0.0000000000
  -0.0041983500   -0.0042095600   -0.0000000000
   0.0085590200   -0.0006783300    0.0054215500
  -0.0059445400   -0.0006796300    0.0090820700
   0.0037921500    0.0002423000    0.0036676600
  -0.0039838700    0.0002418600    0.0041080900
   0.0085590200   -0.0006783300   -0.0054215500
  -0.0059445400   -0.0006796300   -0.0090820700
   0.0037921500    0.0002423000   -0.0036676600
  -0.0039838700    0.0002418600   -0.0041080900
   0.0002335100    0.0071530600    0.0074624700
  -0.0006701900    0.0052011800    0.0057473600
   0.0002339700   -0.0073476300    0.0070399700
  -0.0006688700   -0.0025722600    0.0020297900
   0.0002335100    0.0071530600   -0.0074624700
  -0.0006701900    0.0052011800   -0.0057473600
   0.0002339700   -0.0073476300   -0.0070399700
  -0.0006688700   -0.0025722600   -0.0020297900
  -0.0003049000    0.0002724800   -0.0002953200
   0.0023017400    0.0126724900    0.0112627900
   0.0039311900   -0.0063734100    0.0054018600
  -0.0050958700   -0.0056697900    0.0031963500
   0.0040731200    0.0050729700   -0.0061049400
  -0.0053061000    0.0035424800   -0.0050590900
   0.0033332000   -0.0055151500   -0.0053554500
   0.0037657400    0.0027610800    0.0028964800
   0.0073442400    0.0058915900    0.0044422200
  -0.0005573100    0.0002928200   -0.0002754300
   0.0057634700   -0.0060162600    0.0036530000
  -0.0045935000   -0.0060141100    0.0044606300
   0.0059736300    0.0039996600   -0.0054059300
  -0.0047341900    0.0041308600   -0.0057461800
  -0.0034636800    0.0028606300    0.0029967700
  -0.0036059900   -0.0055708300   -0.0054118400
   0.0043163400    0.0057362800    0.0044479300
  -0.0050584700    0.0048070100    0.0032276600
  -0.0006545000    0.0003885300    0.0001767000
  -0.0044446400   -0.0029795300    0.0044205000
   0.0032770200    0.0052517300   -0.0054118200
   0.0028105300   -0.0034110300    0.0032747700
   0.0041750300   -0.0047809900   -0.0060048600
  -0.0048488100   -0.0028835100   -0.0054185800
   0.0057264600    0.0051532900    0.0036848400
  -0.0049771900    0.0053785300    0.0035052400
   0.0137562600    0.0034645700   -0.0019859400
  -0.0002079900    0.0003685600    0.0001971500
  -0.0025087600   -0.0035116000    0.0033746100
  -0.0035491300    0.0053080800   -0.0054674600
   0.0055168900   -0.0033401500   -0.0057645000
  -0.0048371600   -0.0038391500   -0.0056465400
   0.0040731200    0.0050729700    0.0061049400
  -0.0053061000    0.0035424800    0.0050590900
   0.0033332000   -0.0055151500    0.0053554500
   0.0037657400    0.0027610800   -0.0028964800
  -0.0003049000    0.0002724800    0.0002953200
   0.0023017400    0.0126724900   -0.0112627900
   0.0039311900   -0.0063734100   -0.0054018600
  -0.0050958700   -0.0056697900   -0.0031963500
   0.0059736300    0.0039996600    0.0054059300
  -0.0047341900    0.0041308600    0.0057461800
  -0.0034636800    0.0028606300   -0.0029967700
  -0.0036059900   -0.0055708300    0.0054118400
   0.0073442400    0.0058915900   -0.0044422200
  -0.0005573100    0.0002928200    0.0002754300
   0.0057634700   -0.0060162600   -0.0036530000
  -0.0045935000   -0.0060141100   -0.0044606300
   0.0032770200    0.0052517300    0.0054118200
   0.0028105300   -0.0034110300   -0.0032747700
   0.0041750300   -0.0047809900    0.0060048600
  -0.0048488100   -0.0028835100    0.0054185800
   0.0043163400    0.0057362800   -0.0044479300
  -0.0050584700    0.0048070100   -0.0032276600
  -0.0006545000    0.0003885300   -0.0001767000
  -0.0044446400   -0.0029795300   -0.0044205000
  -0.0025087600   -0.0035116000   -0.0033746100
  -0.0035491300    0.0053080800    0.0054674600
   0.0055168900   -0.0033401500    0.0057645000
  -0.0048371600   -0.0038391500    0.0056465400
   0.0057264600    0.0051532900   -0.0036848400
  -0.0049771900    0.0053785300   -0.0035052400
   0.0137562600    0.0034645700    0.0019859400
  -0.0002079900    0.0003685600   -0.0001971500

4    
  0.0070710678118655   0.0000000000000000   0.0070710678118655
   0.0015618300   -0.0000000000    0.0000350000
  -0.0002468200   -0.0000000000   -0.0002530900
   0.0005910600   -0.0000000000   -0.0002531000
  -0.0467578900   -0.0000000000   -0.0462609000
   0.0002529700   -0.0000000000    0.0002584700
   0.0000322700   -0.0000000000    0.0016123900
   0.0016123600   -0.0000000000    0.0016123600
  -0.0002300700   -0.0000000000    0.0006228500
   0.0085250100    0.0091492300   -0.0007871000
  -0.0059787100    0.0053504200   -0.0007895300
   0.0085250100   -0.0091492300   -0.0007871000
  -0.0059787100   -0.0053504200   -0.0007895300
   0.0037850000    0.0040999900    0.0002311500
  -0.0039907500    0.0036741300    0.0002307000
   0.0037850000   -0.0040999900    0.0002311500
  -0.0039907500   -0.0036741300    0.0002307000
   0.0069405400   -0.0000000000    0.0069694000
  -0.0071398200   -0.0000000000    0.0073515600
   0.0033059500   -0.0000000000    0.0033755700
  -0.0007200600   -0.0000000000    0.0070828700
   0.0073619200   -0.0000000000   -0.0071491300
  -0.0075601100   -0.0000000000   -0.0075325000
   0.0070389000   -0.0000000000   -0.0007081600
  -0.0044674800   -0.0000000000   -0.0044002300
   0.0002354700    0.0070399800    0.0071599600
  -0.0006570400    0.0020160700    0.0052243500
   0.0002354700   -0.0070399800    0.0071599600
  -0.0006570400   -0.0020160700    0.0052243500
   0.0002361200    0.0074608100   -0.0073402900
  -0.0006557200    0.0057563000   -0.0025492600
   0.0002361200   -0.0074608100   -0.0073402900
  -0.0006557200   -0.0057563000   -0.0025492600
  -0.0004082900   -0.0002644700    0.0005578600
  -0.0057801800    0.0048122900    0.0045559400
   0.0041986400   -0.0061311600    0.0047767700
   0.0028652700    0.0014394700    0.0117250300
   0.0043539100    0.0045086900   -0.0059808000
  -0.0047872900    0.0032080500   -0.0057884200
   0.0029312000   -0.0044628400   -0.0059307400
   0.0034495100    0.0028930600    0.0028724700
   0.0064449400    0.0044423600    0.0050271300
  -0.0002022400    0.0000574000   -0.0003379800
   0.0069318000   -0.0054734400    0.0048203900
  -0.0050568700   -0.0060959000    0.0048068700
   0.0050718400    0.0033017900   -0.0056943300
  -0.0046127900    0.0044575400   -0.0060376700
  -0.0027949900    0.0033490100    0.0025167100
  -0.0035788500   -0.0054002900   -0.0055528100
   0.0041986400    0.0061311600    0.0047767700
   0.0028652700   -0.0014394700    0.0117250300
  -0.0004082900    0.0002644700    0.0005578600
  -0.0057801800   -0.0048122900    0.0045559400
   0.0029312000    0.0044628400   -0.0059307400
   0.0034495100   -0.0028930600    0.0028724700
   0.0043539100   -0.0045086900   -0.0059808000
  -0.0047872900   -0.0032080500   -0.0057884200
   0.0069318000    0.0054734400    0.0048203900
  -0.0050568700    0.0060959000    0.0048068700
   0.0064449400   -0.0044423600    0.0050271300
  -0.0002022400   -0.0000574000   -0.0003379800
  -0.0027949900   -0.0033490100    0.0025167100
  -0.0035788500    0.0054002900   -0.0055528100
   0.0050718400   -0.0033017900   -0.0056943300
  -0.0046127900   -0.0044575400   -0.0060376700
   0.0042976300    0.0044516400    0.0057122800
  -0.0057498500    0.0035800400    0.0051295900
   0.0033036100   -0.0054243400    0.0052705700
   0.0034782800    0.0029212900   -0.0037554100
  -0.0002991800   -0.0001547600   -0.0002442600
  -0.0053050100    0.0044661200   -0.0038836600
   0.0038527300   -0.0056567000   -0.0041045500
  -0.0039318500   -0.0053974400   -0.0020249500
   0.0060340200    0.0036732900    0.0050342800
  -0.0045557700    0.0044012700    0.0057698700
  -0.0028232700    0.0033778800   -0.0033997100
  -0.0039499000   -0.0063634800    0.0048941300
   0.0059705000    0.0040969500   -0.0043544800
  -0.0003124100    0.0001669800    0.0006514300
   0.0133889300   -0.0118928300    0.0045409700
  -0.0047112200   -0.0056207700   -0.0041341900
   0.0033036100    0.0054243400    0.0052705700
   0.0034782800   -0.0029212900   -0.0037554100
   0.0042976300   -0.0044516400    0.0057122800
  -0.0057498500   -0.0035800400    0.0051295900
   0.0038527300    0.0056567000   -0.0041045500
  -0.0039318500    0.0053974400   -0.0020249500
  -0.0002991800    0.0001547600   -0.0002442600
  -0.0053050100   -0.0044661200   -0.0038836600
  -0.0028232700   -0.0033778800   -0.0033997100
  -0.0039499000    0.0063634800    0.0048941300
   0.0060340200   -0.0036732900    0.0050342800
  -0.0045557700   -0.0044012700    0.0057698700
   0.0133889300    0.0118928300    0.0045409700
  -0.0047112200    0.0056207700   -0.0041341900
   0.0059705000   -0.0040969500   -0.0043544800
  -0.0003124100   -0.0001669800    0.0006514300

8    
  0.0100000000000000   0.0000000000000000   0.0000000000000000
   0.0003460700   -0.0000000000   -0.0000000000
  -0.0000114100   -0.0000000000   -0.0000000000
   0.0022673100   -0.0000000000   -0.0000000000
  -0.0003253300   -0.0000000000   -0.0000000000
   0.0022673100   -0.0000000000   -0.0000000000
  -0.0003253300   -0.0000000000   -0.0000000000
   0.0008808700   -0.0000000000   -0.0000000000
  -0.0641299200   -0.0000000000   -0.0000000000
   0.0070990000    0.0075595500   -0.0000000000
  -0.0074043900    0.0069402900   -0.0000000000
   0.0070990000   -0.0075595500   -0.0000000000
  -0.0074043900   -0.0069402900   -0.0000000000
   0.0057455000    0.0065002200   -0.0000000000
  -0.0020247900    0.0012628100   -0.0000000000
   0.0057455000   -0.0065002200   -0.0000000000
  -0.0020247900   -0.0012628100   -0.0000000000
   0.0070990000   -0.0000000000    0.0075595500
  -0.0074043900   -0.0000000000    0.0069402900
   0.0057455000   -0.0000000000    0.0065002200
  -0.0020247900   -0.0000000000    0.0012628100
   0.0070990000   -0.0000000000   -0.0075595500
  -0.0074043900   -0.0000000000   -0.0069402900
   0.0057455000   -0.0000000000   -0.0065002200
  -0.0020247900   -0.0000000000   -0.0012628100
   0.0003362700    0.0072509700    0.0072509700
  -0.0009483700    0.0038916900    0.0038916900
   0.0003362700   -0.0072509700    0.0072509700
  -0.0009483700   -0.0038916900    0.0038916900
   0.0003362700    0.0072509700   -0.0072509700
  -0.0009483700    0.0038916900   -0.0038916900
   0.0003362700   -0.0072509700   -0.0072509700
  -0.0009483700   -0.0038916900   -0.0038916900
  -0.0002365500   -0.0000101200   -0.0000101200
  -0.0056646100    0.0043866300    0.0043866300
   0.0039989800   -0.0052033400    0.0041921300
  -0.0049458400   -0.0057308000    0.0036878300
   0.0039989800    0.0041921300   -0.0052033400
  -0.0049458400    0.0036878300   -0.0057308000
   0.0028240300   -0.0054330400   -0.0054330400
   0.0097447600    0.0076989600    0.0076989600
   0.0060792200    0.0045231200    0.0045231200
  -0.0001402000   -0.0000869500   -0.0000869500
   0.0058743100   -0.0050944200    0.0031936700
  -0.0049109000   -0.0065490900    0.0047159800
   0.0058743100    0.0031936700   -0.0050944200
  -0.0049109000    0.0047159800   -0.0065490900
   0.0033739500   -0.0012700200   -0.0012700200
  -0.0040592900   -0.0053911100   -0.0053911100
   0.0039989800    0.0052033400    0.0041921300
  -0.0049458400    0.0057308000    0.0036878300
  -0.0002365500    0.0000101200   -0.0000101200
  -0.0056646100   -0.0043866300    0.0043866300
   0.0028240300    0.0054330400   -0.0054330400
   0.0097447600   -0.0076989600    0.0076989600
   0.0039989800   -0.0041921300   -0.0052033400
  -0.0049458400   -0.0036878300   -0.0057308000
   0.0058743100    0.0050944200    0.0031936700
  -0.0049109000    0.0065490900    0.0047159800
   0.0060792200   -0.0045231200    0.0045231200
  -0.0001402000    0.0000869500   -0.0000869500
   0.0033739500    0.0012700200   -0.0012700200
  -0.0040592900    0.0053911100   -0.0053911100
   0.0058743100   -0.0031936700   -0.0050944200
  -0.0049109000   -0.0047159800   -0.0065490900
   0.0039989800    0.0041921300    0.0052033400
  -0.0049458400    0.0036878300    0.0057308000
   0.0028240300   -0.0054330400    0.0054330400
   0.0097447600    0.0076989600   -0.0076989600
  -0.0002365500   -0.0000101200    0.0000101200
  -0.0056646100    0.0043866300   -0.0043866300
   0.0039989800   -0.0052033400   -0.0041921300
  -0.0049458400   -0.0057308000   -0.0036878300
   0.0058743100    0.0031936700    0.0050944200
  -0.0049109000    0.0047159800    0.0065490900
   0.0033739500   -0.0012700200    0.0012700200
  -0.0040592900   -0.0053911100    0.0053911100
   0.0060792200    0.0045231200   -0.0045231200
  -0.0001402000   -0.0000869500    0.0000869500
   0.0058743100   -0.0050944200   -0.0031936700
  -0.0049109000   -0.0065490900   -0.0047159800
   0.0028240300    0.0054330400    0.0054330400
   0.0097447600   -0.0076989600   -0.0076989600
   0.0039989800   -0.0041921300    0.0052033400
  -0.0049458400   -0.0036878300    0.0057308000
   0.0039989800    0.0052033400   -0.0041921300
  -0.0049458400    0.0057308000   -0.0036878300
  -0.0002365500    0.0000101200    0.0000101200
  -0.0056646100   -0.0043866300   -0.0043866300
   0.0033739500    0.0012700200    0.0012700200
  -0.0040592900    0.0053911100    0.0053911100
   0.0058743100   -0.0031936700    0.0050944200
  -0.0049109000   -0.0047159800    0.0065490900
   0.0058743100    0.0050944200   -0.0031936700
  -0.0049109000    0.0065490900   -0.0047159800
   0.0060792200   -0.0045231200   -0.0045231200
  -0.0001402000    0.0000869500    0.0000869500

9    
  0.0070710678118655   0.0000000000000000   0.0070710678118655
   0.0011821800    0.0017373900   -0.0006188800
   0.0013064300   -0.0018616800   -0.0006795900
   0.0012960600   -0.0018292600   -0.0006780900
   0.0012706000    0.0018986900   -0.0007891300
  -0.0000967900    0.0002108000    0.0002339000
  -0.0000997400   -0.0002108800    0.0002355700
  -0.0000897800   -0.0001911100    0.0002359200
  -0.0001083300    0.0002192200    0.0002373700
  -0.0386704000    0.0059414800   -0.0465893300
  -0.0066577100    0.0072589400   -0.0002473700
   0.0070147000   -0.0072588800   -0.0002473000
  -0.0056044900   -0.0072225200    0.0000286400
   0.0036564000    0.0038891200    0.0006208400
  -0.0023090000    0.0038805000    0.0016468800
   0.0038902400   -0.0039259300    0.0016467200
  -0.0036273000   -0.0038909700    0.0002690100
   0.0065481100   -0.0019111700    0.0085496900
  -0.0070050400   -0.0002366200    0.0071400600
   0.0032097900    0.0018874600    0.0052085200
  -0.0036575800    0.0002183400    0.0037758700
   0.0066274800    0.0018310400   -0.0060050300
  -0.0070242300    0.0002160600   -0.0073709000
   0.0032634800   -0.0019205000   -0.0024714900
  -0.0036500700   -0.0002152400   -0.0039864000
  -0.0005988900    0.0072392200    0.0067301800
   0.0031882000    0.0038722400    0.0071071100
  -0.0003419000   -0.0072462700    0.0069105200
   0.0001150500   -0.0038979900    0.0039953400
   0.0031348000    0.0073170400   -0.0041936700
  -0.0006278600    0.0039247900   -0.0043610600
   0.0001112000   -0.0072657200   -0.0071408500
  -0.0003182200   -0.0038909000   -0.0042060700
   0.0013279800   -0.0001319300    0.0013115900
  -0.0064966700    0.0046718400    0.0048030700
   0.0050190200   -0.0058801700    0.0050217100
  -0.0056775100   -0.0055268500    0.0031439300
   0.0048081200    0.0042521400   -0.0064791000
  -0.0055345000    0.0034106100   -0.0055666600
   0.0030833100   -0.0052549900   -0.0057015400
   0.0029739100    0.0031411200    0.0029762900
   0.0135183300   -0.0018781900    0.0121848500
  -0.0001971400    0.0001908400    0.0002735200
   0.0055121300   -0.0057566600    0.0035477100
  -0.0048271100   -0.0056482800    0.0050718100
   0.0057021800    0.0036671500   -0.0056734300
  -0.0049708700    0.0035232900   -0.0063844100
  -0.0024857300    0.0033944400    0.0027577500
  -0.0035454800   -0.0054684200   -0.0055157400
   0.0060173800    0.0057503400    0.0059131700
  -0.0060145400    0.0051850300    0.0037969300
   0.0005054900    0.0000537800    0.0005233700
  -0.0061507400   -0.0043122800    0.0041308800
   0.0037639000    0.0055977900   -0.0060302200
   0.0030099700   -0.0031132000    0.0029894900
   0.0041421100   -0.0045911200   -0.0061485300
  -0.0055780900   -0.0034389300   -0.0055731200
   0.0141165700    0.0126562400    0.0121235100
  -0.0047019900    0.0056240400    0.0047783800
   0.0059739400   -0.0040913700    0.0045600600
  -0.0002970800   -0.0001560400    0.0005604900
  -0.0028210100   -0.0033918700    0.0028675500
  -0.0039440800    0.0063381800   -0.0059150800
   0.0060209700   -0.0036687900   -0.0057767800
  -0.0045637900   -0.0043980600   -0.0059822000
   0.0047616500    0.0042049200    0.0056094300
  -0.0059312200    0.0044073600    0.0048995100
   0.0040785700   -0.0056519100    0.0050331600
   0.0030278000    0.0031942400   -0.0032456500
   0.0081569600    0.0066581400    0.0088250400
  -0.0061227200    0.0042006100   -0.0041265800
   0.0045484900   -0.0055067500   -0.0043452900
  -0.0057924700   -0.0056410100   -0.0028424800
   0.0057586400    0.0036575600    0.0047950700
  -0.0045840500    0.0044678900    0.0057373700
  -0.0034728300    0.0029988400   -0.0034163000
  -0.0036024400   -0.0054077400    0.0052474200
   0.0073494100    0.0044034500   -0.0029557000
  -0.0005762400   -0.0002711800    0.0003995200
   0.0059903700   -0.0054028800   -0.0028702800
  -0.0047292200   -0.0057460100   -0.0047787400
   0.0037540900    0.0056541900    0.0051521000
   0.0026151400   -0.0041013800   -0.0036478600
   0.0050878000   -0.0042051100    0.0055014600
  -0.0055173800   -0.0034958700    0.0053055400
   0.0119346800   -0.0000612700    0.0029919700
  -0.0056611000    0.0056633300   -0.0031188500
   0.0000433300   -0.0003249000    0.0001504700
  -0.0062487500   -0.0042141300   -0.0038382000
  -0.0027840100   -0.0033558300   -0.0037535300
  -0.0035697000    0.0053899300    0.0052649700
   0.0050713200   -0.0032948000    0.0051277900
  -0.0046164900   -0.0044515000    0.0057161200
   0.0068455400    0.0053457200   -0.0021069900
  -0.0050668500    0.0060795500   -0.0041190900
   0.0064302300   -0.0044567500   -0.0039006900
  -0.0001949500   -0.0000531200   -0.0002669800

9    
 -0.0070710678118655   0.0000000000000000  -0.0070710678118655
  -0.0011803000   -0.0017388600    0.0006200900
  -0.0013080900    0.0018595800    0.0006784000
  -0.0012949300    0.0018312800    0.0006799100
  -0.0012757900   -0.0019000800    0.0007875900
   0.0000976500   -0.0002116800   -0.0002334500
   0.0000988800    0.0002099700   -0.0002359400
   0.0000904600    0.0001916700   -0.0002356000
   0.0001075500   -0.0002186400   -0.0002380600
   0.0531789400    0.0085575400    0.0466228200
  -0.0078441400    0.0072429000    0.0002473800
   0.0074871800   -0.0072427900    0.0002474500
  -0.0088976900   -0.0072796000   -0.0000289600
   0.0041184900    0.0038856800   -0.0006211600
  -0.0054656500    0.0038944000   -0.0016473800
   0.0038847300   -0.0038481500   -0.0016476000
  -0.0041476400   -0.0038839700   -0.0002690800
   0.0079520600    0.0019087300    0.0059502700
  -0.0074968800    0.0002359300    0.0073601700
   0.0045641200   -0.0018854800    0.0025638500
  -0.0041181700   -0.0002173900    0.0039976700
   0.0078754700   -0.0018328700   -0.0084947000
  -0.0074765300   -0.0002168900   -0.0071296200
   0.0045129400    0.0019258900   -0.0053047100
  -0.0041245600    0.0002164200   -0.0037873700
   0.0005983000    0.0072623400    0.0077719700
  -0.0031722600    0.0039025700    0.0006836200
   0.0003413700   -0.0072554400    0.0075912800
  -0.0001148400   -0.0038772500    0.0037790400
  -0.0031517400    0.0071842100   -0.0103244400
   0.0006308700    0.0038502400   -0.0034152900
  -0.0001110300   -0.0072353400   -0.0073602000
   0.0003192900   -0.0038840500   -0.0035689400
  -0.0013848700    0.0000837900   -0.0014513100
  -0.0052529700    0.0042404400    0.0041079700
   0.0038907300   -0.0058682200    0.0038888300
  -0.0051440600   -0.0052945300    0.0037427400
   0.0041009500    0.0046601200   -0.0052714100
  -0.0052879100    0.0034743500   -0.0052560900
   0.0037995200   -0.0055671900   -0.0051216500
   0.0032982600    0.0031321900    0.0032964000
  -0.0014858600    0.0104351200   -0.0029887100
   0.0002925800   -0.0002857500   -0.0003691900
   0.0053098600   -0.0050646800    0.0033354600
  -0.0040824200   -0.0061007100    0.0038405900
   0.0051211800    0.0032175400   -0.0051496100
  -0.0039407100    0.0053901000   -0.0053673900
  -0.0037861500    0.0028790700    0.0035152900
  -0.0033377600   -0.0053541600   -0.0053074900
   0.0029307400    0.0059545800    0.0029607700
  -0.0048072300    0.0056349700    0.0030873100
  -0.0006019800    0.0000403900   -0.0006189100
  -0.0055987900   -0.0045985900    0.0047812300
   0.0031186800    0.0052232700   -0.0047924500
   0.0032627200   -0.0031612700    0.0032828600
   0.0047662400   -0.0043200100   -0.0056026200
  -0.0052448800   -0.0034448800   -0.0052493200
  -0.0029857200   -0.0014529100   -0.0049260200
  -0.0042082800    0.0061246700    0.0041320800
   0.0057759000   -0.0048194600    0.0043499500
   0.0003938400    0.0002510500   -0.0006535700
  -0.0034512900   -0.0028816800    0.0034052100
  -0.0029404500    0.0044812300   -0.0049095500
   0.0048038400   -0.0032157200   -0.0050460500
  -0.0043465200   -0.0045120600   -0.0057682700
   0.0041482100    0.0047066700    0.0061409900
  -0.0048896500    0.0024786000    0.0059253600
   0.0028022400   -0.0051691000    0.0057897200
   0.0032450800    0.0030782300   -0.0030263700
  -0.0085583900   -0.0071307400   -0.0090578800
  -0.0056272900    0.0047113900   -0.0047842500
   0.0043623900   -0.0062430900   -0.0045652000
  -0.0050302300   -0.0051798900   -0.0040443000
   0.0050648700    0.0032275600    0.0060280800
  -0.0043263000    0.0044436700    0.0060132200
  -0.0027977600    0.0032747600   -0.0028551300
  -0.0032800400   -0.0054141700    0.0055751300
   0.0043634400    0.0045536700   -0.0059185700
   0.0006722900    0.0001774100   -0.0003046200
   0.0048317700   -0.0054180800   -0.0040140900
  -0.0041813800   -0.0060034300   -0.0041332000
   0.0031284500    0.0051668600    0.0056711600
   0.0036591600   -0.0021740100   -0.0026225500
   0.0038208500   -0.0047064500    0.0062484400
  -0.0053048600   -0.0033871300    0.0055177000
  -0.0033131900    0.0121632000   -0.0121921500
  -0.0051609500    0.0051569700   -0.0037652800
  -0.0001389300    0.0004205500   -0.0000541300
  -0.0055018000   -0.0046972900   -0.0050742300
  -0.0034874700   -0.0029188600   -0.0025182600
  -0.0033135400    0.0054313300    0.0055581400
   0.0057525800   -0.0035892300    0.0056957900
  -0.0042931300   -0.0044593900    0.0060337500
   0.0039313100    0.0054267100   -0.0047416400
  -0.0038434300    0.0056684000   -0.0047920900
   0.0053203800   -0.0044551000   -0.0050099100
   0.0002900700    0.0001480500    0.0003602300

13   
  0.0070710678118655   0.0000000000000000   0.0070710678118655
  -0.0001013900    0.0001879000    0.0001779500
  -0.0000964300   -0.0002155900    0.0002418400
  -0.0001011000   -0.0002198500    0.0002423100
  -0.0001033800    0.0002133100    0.0002306600
   0.0013153700    0.0018577900   -0.0006689100
   0.0012884700   -0.0018710100   -0.0006570000
   0.0013385400   -0.0018489600   -0.0006558200
   0.0013146800    0.0018527700   -0.0006713300
   0.0070198000    0.0072526100    0.0006211700
  -0.0056727600    0.0072896700    0.0016469700
   0.0072535300   -0.0072440600    0.0016472500
  -0.0069907400   -0.0072543600    0.0002689000
  -0.0417548900    0.0035112200   -0.0453440900
  -0.0032830000    0.0038876000   -0.0002388800
   0.0036436000   -0.0038876200   -0.0002389000
  -0.0022810600   -0.0038808100    0.0000026500
   0.0065818200    0.0018781600    0.0085384200
  -0.0070179200    0.0002199400    0.0071561700
   0.0032105800   -0.0018443900    0.0051819000
  -0.0036449400   -0.0002202300    0.0037840600
   0.0066174600   -0.0019318500   -0.0059874800
  -0.0070162700   -0.0002137100   -0.0073601800
   0.0031994300    0.0018558800   -0.0025844800
  -0.0036507700    0.0002156000   -0.0039896100
   0.0032666600    0.0071853200    0.0103610700
  -0.0005509700    0.0038870500    0.0033351500
   0.0001118500   -0.0072461800    0.0073622600
  -0.0003204700   -0.0038836400    0.0035685300
  -0.0005356600    0.0072220100   -0.0078171800
   0.0031564700    0.0038773000   -0.0007307300
  -0.0003222200   -0.0072441600   -0.0075659800
   0.0001149900   -0.0038890500   -0.0037744600
   0.0002797800   -0.0002351100   -0.0006523100
  -0.0060181600    0.0044571500    0.0043145400
   0.0041389800   -0.0057410000    0.0041784200
  -0.0055710900   -0.0054111500    0.0032757900
   0.0059211100    0.0044971000   -0.0044301200
  -0.0060208000    0.0036528500   -0.0050657900