<?xml version="1.0" encoding="ISO-8859-1"?>
<modeling>
 <generator>
  <i name="program" type="string">vasp </i>
  <i name="version" type="string">5.4.4.18Apr17-6-g9f103f2a35  </i>
  <i name="subversion" type="string">(build Apr 28 2017 11:12:57) complex            parallel </i>
  <i name="platform" type="string">LinuxIFC </i>
  <i name="date" type="string">2018 06 27 </i>
  <i name="time" type="string">23:35:13 </i>
 </generator>
 <incar>
  <i type="string" name="PREC">accurate</i>
  <i type="int" name="IALGO">    38</i>
  <i type="int" name="IBRION">    -1</i>
  <i name="EDIFF">      0.00000001</i>
  <i type="int" name="ISYM">     0</i>
  <i name="ENCUT">    270.00000000</i>
  <i type="logical" name="LREAL"> F  </i>
  <i type="int" name="ISMEAR">     0</i>
  <i name="SIGMA">      0.01000000</i>
  <i type="logical" name="LWAVE"> F  </i>
  <i type="logical" name="LCHARG"> F  </i>
  <v type="int" name="KPOINT_BSE">    -1     0     0     0</v>
 </incar>
 <structure name="primitive_cell" >
  <crystal>
   <varray name="basis" >
    <v>      12.74739769       0.00000000       0.00000000 </v>
    <v>       0.00000000      12.74739769       0.00000000 </v>
    <v>       0.00000000       0.00000000      12.74739769 </v>
   </varray>
   <i name="volume">   2071.40301882 </i>
   <varray name="rec_basis" >
    <v>       0.07844738       0.00000000       0.00000000 </v>
    <v>       0.00000000       0.07844738       0.00000000 </v>
    <v>       0.00000000       0.00000000       0.07844738 </v>
   </varray>
  </crystal>
  <varray name="positions" >
   <v>       0.00000000       0.00000000       0.00000000 </v>
   <v>       0.12960836       0.12960836       0.12960836 </v>
   <v>      -0.12960836       0.12960836       0.12960836 </v>
   <v>       0.12960836      -0.12960836       0.12960836 </v>
   <v>      -0.12960836      -0.12960836       0.12960836 </v>
   <v>       0.12960836       0.12960836      -0.12960836 </v>
   <v>      -0.12960836       0.12960836      -0.12960836 </v>
   <v>       0.12960836      -0.12960836      -0.12960836 </v>
   <v>      -0.12960836      -0.12960836      -0.12960836 </v>
   <v>       0.25140293       0.25140293       0.00000000 </v>
   <v>      -0.25140293       0.25140293       0.00000000 </v>
   <v>       0.25140293      -0.25140293       0.00000000 </v>
   <v>      -0.25140293      -0.25140293       0.00000000 </v>
   <v>       0.25140293       0.00000000       0.25140293 </v>
   <v>      -0.25140293       0.00000000       0.25140293 </v>
   <v>       0.25140293       0.00000000      -0.25140293 </v>
   <v>      -0.25140293       0.00000000      -0.25140293 </v>
   <v>       0.00000000       0.25140293       0.25140293 </v>
   <v>       0.00000000      -0.25140293       0.25140293 </v>
   <v>       0.00000000       0.25140293      -0.25140293 </v>
   <v>       0.00000000      -0.25140293      -0.25140293 </v>
   <v>       0.12507203      -0.37578643       0.12507203 </v>
   <v>       0.12507203       0.12507203      -0.37578643 </v>
   <v>       0.37578643       0.12507203       0.12507203 </v>
   <v>      -0.12507203      -0.37578643       0.12507203 </v>
   <v>      -0.12507203       0.12507203      -0.37578643 </v>
   <v>       0.12507203       0.37578643       0.12507203 </v>
   <v>      -0.37578643      -0.12507203       0.12507203 </v>
   <v>       0.12507203      -0.12507203      -0.37578643 </v>
   <v>      -0.12507203       0.37578643       0.12507203 </v>
   <v>       0.37578643      -0.12507203       0.12507203 </v>
   <v>      -0.12507203      -0.12507203      -0.37578643 </v>
   <v>       0.12507203       0.12507203       0.37578643 </v>
   <v>      -0.37578643       0.12507203      -0.12507203 </v>
   <v>       0.12507203      -0.37578643      -0.12507203 </v>
   <v>      -0.12507203       0.12507203       0.37578643 </v>
   <v>       0.37578643       0.12507203      -0.12507203 </v>
   <v>      -0.12507203      -0.37578643      -0.12507203 </v>
   <v>       0.12507203      -0.12507203       0.37578643 </v>
   <v>       0.12507203       0.37578643      -0.12507203 </v>
   <v>      -0.37578643      -0.12507203      -0.12507203 </v>
   <v>      -0.12507203      -0.12507203       0.37578643 </v>
   <v>      -0.12507203       0.37578643      -0.12507203 </v>
   <v>       0.37578643      -0.12507203      -0.12507203 </v>
   <v>      -0.37657090       0.12507203       0.12507203 </v>
   <v>      -0.50000000       0.00000000       0.00000000 </v>
   <v>       0.00000000      -0.50000000       0.00000000 </v>
   <v>       0.00000000       0.00000000      -0.50000000 </v>
   <v>      -0.37544727      -0.37544727       0.12469540 </v>
   <v>      -0.37544727       0.12469540      -0.37544727 </v>
   <v>       0.12469540      -0.37544727      -0.37544727 </v>
   <v>       0.37544727      -0.37544727       0.12469540 </v>
   <v>       0.37544727       0.12469540      -0.37544727 </v>
   <v>      -0.12469540      -0.37544727      -0.37544727 </v>
   <v>      -0.37544727       0.37544727       0.12469540 </v>
   <v>       0.12469540       0.37544727      -0.37544727 </v>
   <v>      -0.37544727      -0.12469540      -0.37544727 </v>
   <v>       0.37544727       0.37544727       0.12469540 </v>
   <v>      -0.12469540       0.37544727      -0.37544727 </v>
   <v>       0.37544727      -0.12469540      -0.37544727 </v>
   <v>      -0.37544727       0.12469540       0.37544727 </v>
   <v>       0.12469540      -0.37544727       0.37544727 </v>
   <v>      -0.37544727      -0.37544727      -0.12469540 </v>
   <v>       0.37544727       0.12469540       0.37544727 </v>
   <v>      -0.12469540      -0.37544727       0.37544727 </v>
   <v>       0.37544727      -0.37544727      -0.12469540 </v>
   <v>       0.12469540       0.37544727       0.37544727 </v>
   <v>      -0.37544727      -0.12469540       0.37544727 </v>
   <v>      -0.37544727       0.37544727      -0.12469540 </v>
   <v>      -0.12469540       0.37544727       0.37544727 </v>
   <v>       0.37544727      -0.12469540       0.37544727 </v>
   <v>       0.37544727       0.37544727      -0.12469540 </v>
   <v>       0.25012668       0.25012668      -0.50000000 </v>
   <v>      -0.25012668       0.25012668      -0.50000000 </v>
   <v>       0.25012668      -0.25012668      -0.50000000 </v>
   <v>      -0.25012668      -0.25012668      -0.50000000 </v>
   <v>       0.25012668      -0.50000000       0.25012668 </v>
   <v>      -0.25012668      -0.50000000       0.25012668 </v>
   <v>       0.25012668      -0.50000000      -0.25012668 </v>
   <v>      -0.25012668      -0.50000000      -0.25012668 </v>
   <v>      -0.50000000       0.25012668       0.25012668 </v>
   <v>      -0.50000000      -0.25012668       0.25012668 </v>
   <v>      -0.50000000       0.25012668      -0.25012668 </v>
   <v>      -0.50000000      -0.25012668      -0.25012668 </v>
   <v>      -0.37491761      -0.37491761      -0.37491761 </v>
   <v>       0.37491761      -0.37491761      -0.37491761 </v>
   <v>      -0.37491761       0.37491761      -0.37491761 </v>
   <v>       0.37491761       0.37491761      -0.37491761 </v>
   <v>      -0.37491761      -0.37491761       0.37491761 </v>
   <v>       0.37491761      -0.37491761       0.37491761 </v>
   <v>      -0.37491761       0.37491761       0.37491761 </v>
   <v>       0.37491761       0.37491761       0.37491761 </v>
   <v>      -0.50000000      -0.50000000       0.00000000 </v>
   <v>      -0.50000000       0.00000000      -0.50000000 </v>
   <v>       0.00000000      -0.50000000      -0.50000000 </v>
   <v>      -0.50000000      -0.50000000      -0.50000000 </v>
  </varray>
 </structure>
 <varray name="primitive_index" >
  <v type="int" >        1 </v>
  <v type="int" >       33 </v>
  <v type="int" >       42 </v>
  <v type="int" >       51 </v>
  <v type="int" >       60 </v>
  <v type="int" >       69 </v>
  <v type="int" >       78 </v>
  <v type="int" >       87 </v>
  <v type="int" >       96 </v>
  <v type="int" >        9 </v>
  <v type="int" >       10 </v>
  <v type="int" >       11 </v>
  <v type="int" >       12 </v>
  <v type="int" >       17 </v>
  <v type="int" >       18 </v>
  <v type="int" >       21 </v>
  <v type="int" >       22 </v>
  <v type="int" >       25 </v>
  <v type="int" >       27 </v>
  <v type="int" >       29 </v>
  <v type="int" >       31 </v>
  <v type="int" >       35 </v>
  <v type="int" >       37 </v>
  <v type="int" >       41 </v>
  <v type="int" >       44 </v>
  <v type="int" >       46 </v>
  <v type="int" >       49 </v>
  <v type="int" >       52 </v>
  <v type="int" >       55 </v>
  <v type="int" >       58 </v>
  <v type="int" >       59 </v>
  <v type="int" >       64 </v>
  <v type="int" >       65 </v>
  <v type="int" >       70 </v>
  <v type="int" >       71 </v>
  <v type="int" >       74 </v>
  <v type="int" >       77 </v>
  <v type="int" >       80 </v>
  <v type="int" >       83 </v>
  <v type="int" >       85 </v>
  <v type="int" >       88 </v>
  <v type="int" >       92 </v>
  <v type="int" >       94 </v>
  <v type="int" >       95 </v>
  <v type="int" >       34 </v>
  <v type="int" >        2 </v>
  <v type="int" >        3 </v>
  <v type="int" >        5 </v>
  <v type="int" >       36 </v>
  <v type="int" >       38 </v>
  <v type="int" >       39 </v>
  <v type="int" >       43 </v>
  <v type="int" >       45 </v>
  <v type="int" >       48 </v>
  <v type="int" >       50 </v>
  <v type="int" >       53 </v>
  <v type="int" >       56 </v>
  <v type="int" >       57 </v>
  <v type="int" >       62 </v>
  <v type="int" >       63 </v>
  <v type="int" >       66 </v>
  <v type="int" >       67 </v>
  <v type="int" >       72 </v>
  <v type="int" >       73 </v>
  <v type="int" >       76 </v>
  <v type="int" >       79 </v>
  <v type="int" >       81 </v>
  <v type="int" >       84 </v>
  <v type="int" >       86 </v>
  <v type="int" >       90 </v>
  <v type="int" >       91 </v>
  <v type="int" >       93 </v>
  <v type="int" >       13 </v>
  <v type="int" >       14 </v>
  <v type="int" >       15 </v>
  <v type="int" >       16 </v>
  <v type="int" >       19 </v>
  <v type="int" >       20 </v>
  <v type="int" >       23 </v>
  <v type="int" >       24 </v>
  <v type="int" >       26 </v>
  <v type="int" >       28 </v>
  <v type="int" >       30 </v>
  <v type="int" >       32 </v>
  <v type="int" >       40 </v>
  <v type="int" >       47 </v>
  <v type="int" >       54 </v>
  <v type="int" >       61 </v>
  <v type="int" >       68 </v>
  <v type="int" >       75 </v>
  <v type="int" >       82 </v>
  <v type="int" >       89 </v>
  <v type="int" >        4 </v>
  <v type="int" >        6 </v>
  <v type="int" >        7 </v>
  <v type="int" >        8 </v>
 </varray>
 <kpoints>
  <generation param="Gamma">
   <v type="int" name="divisions">       1        1        1 </v>
   <v name="usershift">      0.00000000       0.00000000       0.00000000 </v>
   <v name="genvec1">      1.00000000       0.00000000       0.00000000 </v>
   <v name="genvec2">      0.00000000       1.00000000       0.00000000 </v>
   <v name="genvec3">      0.00000000       0.00000000       1.00000000 </v>
   <v name="shift">      0.00000000       0.00000000       0.00000000 </v>
  </generation>
  <varray name="kpointlist" >
   <v>       0.00000000       0.00000000       0.00000000 </v>
  </varray>
  <varray name="weights" >
   <v>       1.00000000 </v>
  </varray>
 </kpoints>
 <parameters>
  <separator name="general" >
   <i type="string" name="SYSTEM">unknown system</i>
   <i type="logical" name="LCOMPAT"> F  </i>
  </separator>
  <separator name="electronic" >
   <i type="string" name="PREC">accura</i>
   <i name="ENMAX">    270.00000000</i>
   <i name="ENAUG">    454.73400000</i>
   <i name="EDIFF">      0.00000001</i>
   <i type="int" name="IALGO">    38</i>
   <i type="int" name="IWAVPR">    10</i>
   <i type="int" name="NBANDS">   178</i>
   <i name="NELECT">    256.00000000</i>
   <i type="int" name="TURBO">     0</i>
   <i type="int" name="IRESTART">     0</i>
   <i type="int" name="NREBOOT">     0</i>
   <i type="int" name="NMIN">     0</i>
   <i name="EREF">      0.00000000</i>
   <separator name="electronic smearing" >
    <i type="int" name="ISMEAR">     0</i>
    <i name="SIGMA">      0.01000000</i>
    <i name="KSPACING">      0.50000000</i>
    <i type="logical" name="KGAMMA"> T  </i>
   </separator>
   <separator name="electronic projectors" >
    <i type="logical" name="LREAL"> F  </i>
    <v name="ROPT">      0.00000000      0.00000000      0.00000000</v>
    <i type="int" name="LMAXPAW">  -100</i>
    <i type="int" name="LMAXMIX">     2</i>
    <i type="logical" name="NLSPLINE"> F  </i>
   </separator>
   <separator name="electronic startup" >
    <i type="int" name="ISTART">     0</i>
    <i type="int" name="ICHARG">     2</i>
    <i type="int" name="INIWAV">     1</i>
   </separator>
   <separator name="electronic spin" >
    <i type="int" name="ISPIN">     1</i>
    <i type="logical" name="LNONCOLLINEAR"> F  </i>
    <v name="MAGMOM">      1.00000000      1.00000000      1.00000000      1.00000000      1.00000000      1.00000000      1.00000000      1.00000000      1.00000000      1.00000000      1.00000000      1.00000000      1.00000000      1.00000000      1.00000000      1.00000000      1.00000000      1.00000000      1.00000000      1.00000000
      1.00000000      1.00000000      1.00000000      1.00000000      1.00000000      1.00000000      1.00000000      1.00000000      1.00000000      1.00000000      1.00000000      1.00000000      1.00000000      1.00000000      1.00000000      1.00000000      1.00000000      1.00000000      1.00000000      1.00000000
      1.00000000      1.00000000      1.00000000      1.00000000      1.00000000      1.00000000      1.00000000      1.00000000      1.00000000      1.00000000      1.00000000      1.00000000      1.00000000      1.00000000      1.00000000      1.00000000      1.00000000      1.00000000      1.00000000      1.00000000
      1.00000000      1.00000000      1.00000000      1.00000000      1.00000000      1.00000000      1.00000000      1.00000000      1.00000000      1.00000000      1.00000000      1.00000000      1.00000000      1.00000000      1.00000000      1.00000000      1.00000000      1.00000000      1.00000000      1.00000000
      1.00000000      1.00000000      1.00000000      1.00000000      1.00000000      1.00000000      1.00000000      1.00000000      1.00000000      1.00000000      1.00000000      1.00000000      1.00000000      1.00000000      1.00000000      1.00000000</v>
    <i name="NUPDOWN">     -1.00000000</i>
    <i type="logical" name="LSORBIT"> F  </i>
    <v name="SAXIS">      0.00000000      0.00000000      1.00000000</v>
    <i type="logical" name="LSPIRAL"> F  </i>
    <v name="QSPIRAL">      0.00000000      0.00000000      0.00000000</v>
    <i type="logical" name="LZEROZ"> F  </i>
   </separator>
   <separator name="electronic exchange-correlation" >
    <i type="logical" name="LASPH"> F  </i>
    <i type="logical" name="LMETAGGA"> F  </i>
   </separator>
   <separator name="electronic convergence" >
    <i type="int" name="NELM">    60</i>
    <i type="int" name="NELMDL">    -5</i>
    <i type="int" name="NELMIN">     2</i>
    <i name="ENINI">    270.00000000</i>
    <separator name="electronic convergence detail" >
     <i type="logical" name="LDIAG"> T  </i>
     <i type="logical" name="LSUBROT"> F  </i>
     <i name="WEIMIN">      0.00000000</i>
     <i name="EBREAK">      0.00000000</i>
     <i name="DEPER">      0.30000000</i>
     <i type="int" name="NRMM">     4</i>
     <i name="TIME">      0.40000000</i>
    </separator>
   </separator>
   <separator name="electronic mixer" >
    <i name="AMIX">      0.40000000</i>
    <i name="BMIX">      1.00000000</i>
    <i name="AMIN">      0.10000000</i>
    <i name="AMIX_MAG">      1.60000000</i>
    <i name="BMIX_MAG">      1.00000000</i>
    <separator name="electronic mixer details" >
     <i type="int" name="IMIX">     4</i>
     <i type="logical" name="MIXFIRST"> F  </i>
     <i type="int" name="MAXMIX">   -45</i>
     <i name="WC">    100.00000000</i>
     <i type="int" name="INIMIX">     1</i>
     <i type="int" name="MIXPRE">     1</i>
     <i type="int" name="MREMOVE">     5</i>
    </separator>
   </separator>
   <separator name="electronic dipolcorrection" >
    <i type="logical" name="LDIPOL"> F  </i>
    <i type="logical" name="LMONO"> F  </i>
    <i type="int" name="IDIPOL">     0</i>
    <i name="EPSILON">      1.00000000</i>
    <v name="DIPOL">   -100.00000000   -100.00000000   -100.00000000</v>
    <i name="EFIELD">      0.00000000</i>
   </separator>
  </separator>
  <separator name="grids" >
   <i type="int" name="NGX">    70</i>
   <i type="int" name="NGY">    70</i>
   <i type="int" name="NGZ">    70</i>
   <i type="int" name="NGXF">   140</i>
   <i type="int" name="NGYF">   140</i>
   <i type="int" name="NGZF">   140</i>
   <i type="logical" name="ADDGRID"> F  </i>
  </separator>
  <separator name="ionic" >
   <i type="int" name="NSW">     0</i>
   <i type="int" name="IBRION">    -1</i>
   <i type="int" name="MDALGO">     0</i>
   <i type="int" name="ISIF">     2</i>
   <i name="PSTRESS">      0.00000000</i>
   <i name="EDIFFG">      0.00000010</i>
   <i type="int" name="NFREE">     0</i>
   <i name="POTIM">      0.50000000</i>
   <i name="SMASS">     -3.00000000</i>
   <i name="SCALEE">      1.00000000</i>
  </separator>
  <separator name="ionic md" >
   <i name="TEBEG">      0.00010000</i>
   <i name="TEEND">      0.00010000</i>
   <i type="int" name="NBLOCK">     1</i>
   <i type="int" name="KBLOCK">     1</i>
   <i type="int" name="NPACO">   256</i>
   <i name="APACO">     16.00000000</i>
  </separator>
  <separator name="symmetry" >
   <i type="int" name="ISYM">     0</i>
   <i name="SYMPREC">      0.00001000</i>
  </separator>
  <separator name="dos" >
   <i type="int" name="LORBIT">     0</i>
   <v name="RWIGS">     -1.00000000     -1.00000000     -1.00000000</v>
   <i type="int" name="NEDOS">   301</i>
   <i name="EMIN">     10.00000000</i>
   <i name="EMAX">    -10.00000000</i>
   <i name="EFERMI">      0.00000000</i>
  </separator>
  <separator name="writing" >
   <i type="int" name="NWRITE">     2</i>
   <i type="logical" name="LWAVE"> F  </i>
   <i type="logical" name="LDOWNSAMPLE"> F  </i>
   <i type="logical" name="LCHARG"> F  </i>
   <i type="logical" name="LPARD"> F  </i>
   <i type="logical" name="LVTOT"> F  </i>
   <i type="logical" name="LVHAR"> F  </i>
   <i type="logical" name="LELF"> F  </i>
   <i type="logical" name="LOPTICS"> F  </i>
   <v name="STM">      0.00000000      0.00000000      0.00000000      0.00000000      0.00000000      0.00000000      0.00000000</v>
  </separator>
  <separator name="performance" >
   <i type="int" name="NPAR">     2</i>
   <i type="int" name="NSIM">     4</i>
   <i type="int" name="NBLK">    -1</i>
   <i type="logical" name="LPLANE"> T  </i>
   <i type="logical" name="LSCALAPACK"> T  </i>
   <i type="logical" name="LSCAAWARE"> F  </i>
   <i type="logical" name="LSCALU"> F  </i>
   <i type="logical" name="LASYNC"> F  </i>
   <i type="logical" name="LORBITALREAL"> F  </i>
  </separator>
  <separator name="miscellaneous" >
   <i type="int" name="IDIOT">     3</i>
   <i type="int" name="ISPECIAL">     0</i>
   <i type="logical" name="LMUSIC"> F  </i>
   <v name="POMASS">    118.71000000     28.08500000     24.30500000</v>
   <v name="DARWINR">      0.00000000      0.00000000      0.00000000</v>
   <v name="DARWINV">      1.00000000      1.00000000      1.00000000</v>
   <i type="logical" name="LCORR"> T  </i>
  </separator>
  <i type="logical" name="GGA_COMPAT"> T  </i>
  <i type="logical" name="LBERRY"> F  </i>
  <i type="int" name="ICORELEVEL">     0</i>
  <i type="logical" name="LDAU"> F  </i>
  <i type="int" name="I_CONSTRAINED_M">     0</i>
  <separator name="electronic exchange-correlation" >
   <i type="string" name="GGA">--</i>
   <i type="int" name="VOSKOWN">     0</i>
   <i type="logical" name="LHFCALC"> F  </i>
   <i type="string" name="PRECFOCK"></i>
   <i type="logical" name="LSYMGRAD"> F  </i>
   <i type="logical" name="LHFONE"> F  </i>
   <i type="logical" name="LRHFCALC"> F  </i>
   <i type="logical" name="LTHOMAS"> F  </i>
   <i type="logical" name="LMODELHF"> F  </i>
   <i name="ENCUT4O">     -1.00000000</i>
   <i type="int" name="EXXOEP">     0</i>
   <i type="int" name="FOURORBIT">     0</i>
   <i name="AEXX">      0.00000000</i>
   <i name="HFALPHA">      0.00000000</i>
   <i name="MCALPHA">      0.00000000</i>
   <i name="ALDAX">      1.00000000</i>
   <i name="AGGAX">      1.00000000</i>
   <i name="ALDAC">      1.00000000</i>
   <i name="AGGAC">      1.00000000</i>
   <i type="int" name="NKREDX">     1</i>
   <i type="int" name="NKREDY">     1</i>
   <i type="int" name="NKREDZ">     1</i>
   <i type="logical" name="SHIFTRED"> F  </i>
   <i type="logical" name="ODDONLY"> F  </i>
   <i type="logical" name="EVENONLY"> F  </i>
   <i type="int" name="LMAXFOCK">     0</i>
   <i type="int" name="NMAXFOCKAE">     0</i>
   <i type="logical" name="LFOCKAEDFT"> F  </i>
   <i name="HFSCREEN">      0.00000000</i>
   <i name="HFSCREENC">      0.00000000</i>
   <i type="int" name="NBANDSGWLOW">     0</i>
  </separator>
  <separator name="vdW DFT" >
   <i type="logical" name="LUSE_VDW"> F  </i>
   <i name="Zab_VDW">     -0.84910000</i>
   <i name="PARAM1">      0.12340000</i>
   <i name="PARAM2">      1.00000000</i>
   <i name="PARAM3">      0.00000000</i>
  </separator>
  <separator name="model GW" >
   <i type="int" name="MODEL_GW">     0</i>
   <i name="MODEL_EPS0">     12.94626887</i>
   <i name="MODEL_ALPHA">      1.00000000</i>
  </separator>
  <separator name="linear response parameters" >
   <i type="logical" name="LEPSILON"> F  </i>
   <i type="logical" name="LRPA"> F  </i>
   <i type="logical" name="LNABLA"> F  </i>
   <i type="logical" name="LVEL"> F  </i>
   <i type="int" name="KINTER">     0</i>
   <i name="CSHIFT">      0.10000000</i>
   <i name="OMEGAMAX">     -1.00000000</i>
   <i name="DEG_THRESHOLD">      0.00200000</i>
   <i name="RTIME">     -0.10000000</i>
   <i name="WPLASMAI">      0.00000000</i>
   <v name="DFIELD">      0.00000000      0.00000000      0.00000000</v>
   <v name="WPLASMA">      0.00000000      0.00000000      0.00000000      0.00000000      0.00000000      0.00000000      0.00000000      0.00000000      0.00000000</v>
  </separator>
  <separator name="orbital magnetization" >
   <i type="logical" name="NUCIND"> F  </i>
   <v name="MAGPOS">      0.00000000      0.00000000      0.00000000</v>
   <i type="logical" name="LNICSALL"> T  </i>
   <i type="logical" name="ORBITALMAG"> F  </i>
   <i type="logical" name="LMAGBLOCH"> F  </i>
   <i type="logical" name="LCHIMAG"> F  </i>
   <i type="logical" name="LGAUGE"> T  </i>
   <i type="int" name="MAGATOM">     0</i>
   <v name="MAGDIPOL">      0.00000000      0.00000000      0.00000000</v>
   <v name="AVECCONST">      0.00000000      0.00000000      0.00000000</v>
  </separator>
  <separator name="response functions" >
   <i type="logical" name="LADDER"> F  </i>
   <i type="logical" name="LRPAFORCE"> F  </i>
   <i type="logical" name="LFXC"> F  </i>
   <i type="logical" name="LHARTREE"> T  </i>
   <i type="int" name="IBSE">     0</i>
   <v type="int" name="KPOINT">    -1     0     0     0</v>
   <i type="logical" name="LTCTE"> F  </i>
   <i type="logical" name="LTETE"> F  </i>
   <i type="logical" name="LTRIPLET"> F  </i>
   <i type="logical" name="LFXCEPS"> F  </i>
   <i type="logical" name="LFXHEG"> F  </i>
   <i type="int" name="NATURALO">     2</i>
   <i type="logical" name="L2ORDER"> F  </i>
   <i type="logical" name="LMP2LT"> F  </i>
   <i type="logical" name="LUSEW"> F  </i>
   <i name="ENCUTGW">     -2.00000000</i>
   <i name="ENCUTGWSOFT">     -2.00000000</i>
   <i name="ENCUTLF">     -1.00000000</i>
   <i type="int" name="LMAXMP2">    -1</i>
   <i name="SCISSOR">      0.00000000</i>
   <i type="int" name="NOMEGA">     0</i>
   <i type="int" name="NOMEGAR">     0</i>
   <i type="int" name="NBANDSGW">    -1</i>
   <i type="int" name="NBANDSO">    -1</i>
   <i type="int" name="NBANDSV">    -1</i>
   <i type="int" name="NELM">     1</i>
   <i type="int" name="NELMHF">     1</i>
   <i type="int" name="DIM">     3</i>
   <i type="int" name="ANTIRES">     0</i>
   <i name="OMEGAMAX">    -30.00000000</i>
   <i name="OMEGAMIN">    -30.00000000</i>
   <i name="OMEGATL">   -200.00000000</i>
   <i type="int" name="OMEGAGRID">   140</i>
   <i name="CSHIFT">     -0.10000000</i>
   <i type="logical" name="SELFENERGY"> F  </i>
   <i type="logical" name="LSPECTRAL"> F  </i>
   <i type="logical" name="LSPECTRALGW"> F  </i>
   <i type="logical" name="LSINGLES"> F  </i>
   <i type="logical" name="LFERMIGW"> F  </i>
   <i type="logical" name="ODDONLYGW"> F  </i>
   <i type="logical" name="EVENONLYGW"> F  </i>
   <i type="int" name="NKREDLFX">     1</i>
   <i type="int" name="NKREDLFY">     1</i>
   <i type="int" name="NKREDLFZ">     1</i>
   <i type="int" name="MAXMEM">  2800</i>
   <i type="int" name="TELESCOPE">     0</i>
   <i type="int" name="TAUPAR">     1</i>
   <i type="int" name="OMEGAPAR">    -1</i>
   <i name="LAMBDA">      1.00000000</i>
  </separator>
  <separator name="External order field" >
   <i name="OFIELD_KAPPA">      0.00000000</i>
   <v name="OFIELD_K">      0.00000000      0.00000000      0.00000000</v>
   <i name="OFIELD_Q6_NEAR">      0.00000000</i>
   <i name="OFIELD_Q6_FAR">      0.00000000</i>
   <i name="OFIELD_A">      0.00000000</i>
  </separator>
 </parameters>
 <atominfo>
  <atoms>      96 </atoms>
  <types>       3 </types>
  <array name="atoms" >
   <dimension dim="1">ion</dimension>
   <field type="string">element</field>
   <field type="int">atomtype</field>
   <set>
    <rc><c>Sn</c><c>   1</c></rc>
    <rc><c>Si</c><c>   2</c></rc>
    <rc><c>Si</c><c>   2</c></rc>
    <rc><c>Si</c><c>   2</c></rc>
    <rc><c>Si</c><c>   2</c></rc>
    <rc><c>Si</c><c>   2</c></rc>
    <rc><c>Si</c><c>   2</c></rc>
    <rc><c>Si</c><c>   2</c></rc>
    <rc><c>Si</c><c>   2</c></rc>
    <rc><c>Si</c><c>   2</c></rc>
    <rc><c>Si</c><c>   2</c></rc>
    <rc><c>Si</c><c>   2</c></rc>
    <rc><c>Si</c><c>   2</c></rc>
    <rc><c>Si</c><c>   2</c></rc>
    <rc><c>Si</c><c>   2</c></rc>
    <rc><c>Si</c><c>   2</c></rc>
    <rc><c>Si</c><c>   2</c></rc>
    <rc><c>Si</c><c>   2</c></rc>
    <rc><c>Si</c><c>   2</c></rc>
    <rc><c>Si</c><c>   2</c></rc>
    <rc><c>Si</c><c>   2</c></rc>
    <rc><c>Si</c><c>   2</c></rc>
    <rc><c>Si</c><c>   2</c></rc>
    <rc><c>Si</c><c>   2</c></rc>
    <rc><c>Si</c><c>   2</c></rc>
    <rc><c>Si</c><c>   2</c></rc>
    <rc><c>Si</c><c>   2</c></rc>
    <rc><c>Si</c><c>   2</c></rc>
    <rc><c>Si</c><c>   2</c></rc>
    <rc><c>Si</c><c>   2</c></rc>
    <rc><c>Si</c><c>   2</c></rc>
    <rc><c>Si</c><c>   2</c></rc>
    <rc><c>Mg</c><c>   3</c></rc>
    <rc><c>Mg</c><c>   3</c></rc>
    <rc><c>Mg</c><c>   3</c></rc>
    <rc><c>Mg</c><c>   3</c></rc>
    <rc><c>Mg</c><c>   3</c></rc>
    <rc><c>Mg</c><c>   3</c></rc>
    <rc><c>Mg</c><c>   3</c></rc>
    <rc><c>Mg</c><c>   3</c></rc>
    <rc><c>Mg</c><c>   3</c></rc>
    <rc><c>Mg</c><c>   3</c></rc>
    <rc><c>Mg</c><c>   3</c></rc>
    <rc><c>Mg</c><c>   3</c></rc>
    <rc><c>Mg</c><c>   3</c></rc>
    <rc><c>Mg</c><c>   3</c></rc>
    <rc><c>Mg</c><c>   3</c></rc>
    <rc><c>Mg</c><c>   3</c></rc>
    <rc><c>Mg</c><c>   3</c></rc>
    <rc><c>Mg</c><c>   3</c></rc>
    <rc><c>Mg</c><c>   3</c></rc>
    <rc><c>Mg</c><c>   3</c></rc>
    <rc><c>Mg</c><c>   3</c></rc>
    <rc><c>Mg</c><c>   3</c></rc>
    <rc><c>Mg</c><c>   3</c></rc>
    <rc><c>Mg</c><c>   3</c></rc>
    <rc><c>Mg</c><c>   3</c></rc>
    <rc><c>Mg</c><c>   3</c></rc>
    <rc><c>Mg</c><c>   3</c></rc>
    <rc><c>Mg</c><c>   3</c></rc>
    <rc><c>Mg</c><c>   3</c></rc>
    <rc><c>Mg</c><c>   3</c></rc>
    <rc><c>Mg</c><c>   3</c></rc>
    <rc><c>Mg</c><c>   3</c></rc>
    <rc><c>Mg</c><c>   3</c></rc>
    <rc><c>Mg</c><c>   3</c></rc>
    <rc><c>Mg</c><c>   3</c></rc>
    <rc><c>Mg</c><c>   3</c></rc>
    <rc><c>Mg</c><c>   3</c></rc>
    <rc><c>Mg</c><c>   3</c></rc>
    <rc><c>Mg</c><c>   3</c></rc>
    <rc><c>Mg</c><c>   3</c></rc>
    <rc><c>Mg</c><c>   3</c></rc>
    <rc><c>Mg</c><c>   3</c></rc>
    <rc><c>Mg</c><c>   3</c></rc>
    <rc><c>Mg</c><c>   3</c></rc>
    <rc><c>Mg</c><c>   3</c></rc>
    <rc><c>Mg</c><c>   3</c></rc>
    <rc><c>Mg</c><c>   3</c></rc>
    <rc><c>Mg</c><c>   3</c></rc>
    <rc><c>Mg</c><c>   3</c></rc>
    <rc><c>Mg</c><c>   3</c></rc>
    <rc><c>Mg</c><c>   3</c></rc>
    <rc><c>Mg</c><c>   3</c></rc>
    <rc><c>Mg</c><c>   3</c></rc>
    <rc><c>Mg</c><c>   3</c></rc>
    <rc><c>Mg</c><c>   3</c></rc>
    <rc><c>Mg</c><c>   3</c></rc>
    <rc><c>Mg</c><c>   3</c></rc>
    <rc><c>Mg</c><c>   3</c></rc>
    <rc><c>Mg</c><c>   3</c></rc>
    <rc><c>Mg</c><c>   3</c></rc>
    <rc><c>Mg</c><c>   3</c></rc>
    <rc><c>Mg</c><c>   3</c></rc>
    <rc><c>Mg</c><c>   3</c></rc>
    <rc><c>Mg</c><c>   3</c></rc>
   </set>
  </array>
  <array name="atomtypes" >
   <dimension dim="1">type</dimension>
   <field type="int">atomspertype</field>
   <field type="string">element</field>
   <field>mass</field>
   <field>valence</field>
   <field type="string">pseudopotential</field>
   <set>
    <rc><c>   1</c><c>Sn</c><c>    118.71000000</c><c>      4.00000000</c><c>  PAW_PBE Sn 08Apr2002                  </c></rc>
    <rc><c>  31</c><c>Si</c><c>     28.08500000</c><c>      4.00000000</c><c>  PAW_PBE Si 05Jan2001                  </c></rc>
    <rc><c>  64</c><c>Mg</c><c>     24.30500000</c><c>      2.00000000</c><c>  PAW_PBE Mg 13Apr2007                  </c></rc>
   </set>
  </array>
 </atominfo>
 <structure name="initialpos" >
  <crystal>
   <varray name="basis" >
    <v>      12.74739769       0.00000000       0.00000000 </v>
    <v>       0.00000000      12.74739769       0.00000000 </v>
    <v>       0.00000000       0.00000000      12.74739769 </v>
   </varray>
   <i name="volume">   2071.40301882 </i>
   <varray name="rec_basis" >
    <v>       0.07844738       0.00000000       0.00000000 </v>
    <v>       0.00000000       0.07844738       0.00000000 </v>
    <v>       0.00000000       0.00000000       0.07844738 </v>
   </varray>
  </crystal>
  <varray name="positions" >
   <v>       0.00000000       0.00000000       0.00000000 </v>
   <v>       0.50000000       0.00000000       0.00000000 </v>
   <v>       0.00000000       0.50000000       0.00000000 </v>
   <v>       0.50000000       0.50000000       0.00000000 </v>
   <v>       0.00000000       0.00000000       0.50000000 </v>
   <v>       0.50000000       0.00000000       0.50000000 </v>
   <v>       0.00000000       0.50000000       0.50000000 </v>
   <v>       0.50000000       0.50000000       0.50000000 </v>
   <v>       0.25140293       0.25140293       0.00000000 </v>
   <v>       0.74859707       0.25140293       0.00000000 </v>
   <v>       0.25140293       0.74859707       0.00000000 </v>
   <v>       0.74859707       0.74859707       0.00000000 </v>
   <v>       0.25012668       0.25012668       0.50000000 </v>
   <v>       0.74987332       0.25012668       0.50000000 </v>
   <v>       0.25012668       0.74987332       0.50000000 </v>
   <v>       0.74987332       0.74987332       0.50000000 </v>
   <v>       0.25140293       0.00000000       0.25140293 </v>
   <v>       0.74859707       0.00000000       0.25140293 </v>
   <v>       0.25012668       0.50000000       0.25012668 </v>
   <v>       0.74987332       0.50000000       0.25012668 </v>
   <v>       0.25140293       0.00000000       0.74859707 </v>
   <v>       0.74859707       0.00000000       0.74859707 </v>
   <v>       0.25012668       0.50000000       0.74987332 </v>
   <v>       0.74987332       0.50000000       0.74987332 </v>
   <v>       0.00000000       0.25140293       0.25140293 </v>
   <v>       0.50000000       0.25012668       0.25012668 </v>
   <v>       0.00000000       0.74859707       0.25140293 </v>
   <v>       0.50000000       0.74987332       0.25012668 </v>
   <v>       0.00000000       0.25140293       0.74859707 </v>
   <v>       0.50000000       0.25012668       0.74987332 </v>
   <v>       0.00000000       0.74859707       0.74859707 </v>
   <v>       0.50000000       0.74987332       0.74987332 </v>
   <v>       0.12960836       0.12960836       0.12960836 </v>
   <v>       0.62342910       0.12507203       0.12507203 </v>
   <v>       0.12507203       0.62421357       0.12507203 </v>
   <v>       0.62455273       0.62455273       0.12469540 </v>
   <v>       0.12507203       0.12507203       0.62421357 </v>
   <v>       0.62455273       0.12469540       0.62455273 </v>
   <v>       0.12469540       0.62455273       0.62455273 </v>
   <v>       0.62508239       0.62508239       0.62508239 </v>
   <v>       0.37578643       0.12507203       0.12507203 </v>
   <v>       0.87039164       0.12960836       0.12960836 </v>
   <v>       0.37544727       0.62455273       0.12469540 </v>
   <v>       0.87492797       0.62421357       0.12507203 </v>
   <v>       0.37544727       0.12469540       0.62455273 </v>
   <v>       0.87492797       0.12507203       0.62421357 </v>
   <v>       0.37491761       0.62508239       0.62508239 </v>
   <v>       0.87530460       0.62455273       0.62455273 </v>
   <v>       0.12507203       0.37578643       0.12507203 </v>
   <v>       0.62455273       0.37544727       0.12469540 </v>
   <v>       0.12960836       0.87039164       0.12960836 </v>
   <v>       0.62421357       0.87492797       0.12507203 </v>
   <v>       0.12469540       0.37544727       0.62455273 </v>
   <v>       0.62508239       0.37491761       0.62508239 </v>
   <v>       0.12507203       0.87492797       0.62421357 </v>
   <v>       0.62455273       0.87530460       0.62455273 </v>
   <v>       0.37544727       0.37544727       0.12469540 </v>
   <v>       0.87492797       0.37578643       0.12507203 </v>
   <v>       0.37578643       0.87492797       0.12507203 </v>
   <v>       0.87039164       0.87039164       0.12960836 </v>
   <v>       0.37491761       0.37491761       0.62508239 </v>
   <v>       0.87530460       0.37544727       0.62455273 </v>
   <v>       0.37544727       0.87530460       0.62455273 </v>
   <v>       0.87492797       0.87492797       0.62421357 </v>
   <v>       0.12507203       0.12507203       0.37578643 </v>
   <v>       0.62455273       0.12469540       0.37544727 </v>
   <v>       0.12469540       0.62455273       0.37544727 </v>
   <v>       0.62508239       0.62508239       0.37491761 </v>
   <v>       0.12960836       0.12960836       0.87039164 </v>
   <v>       0.62421357       0.12507203       0.87492797 </v>
   <v>       0.12507203       0.62421357       0.87492797 </v>
   <v>       0.62455273       0.62455273       0.87530460 </v>
   <v>       0.37544727       0.12469540       0.37544727 </v>
   <v>       0.87492797       0.12507203       0.37578643 </v>
   <v>       0.37491761       0.62508239       0.37491761 </v>
   <v>       0.87530460       0.62455273       0.37544727 </v>
   <v>       0.37578643       0.12507203       0.87492797 </v>
   <v>       0.87039164       0.12960836       0.87039164 </v>
   <v>       0.37544727       0.62455273       0.87530460 </v>
   <v>       0.87492797       0.62421357       0.87492797 </v>
   <v>       0.12469540       0.37544727       0.37544727 </v>
   <v>       0.62508239       0.37491761       0.37491761 </v>
   <v>       0.12507203       0.87492797       0.37578643 </v>
   <v>       0.62455273       0.87530460       0.37544727 </v>
   <v>       0.12507203       0.37578643       0.87492797 </v>
   <v>       0.62455273       0.37544727       0.87530460 </v>
   <v>       0.12960836       0.87039164       0.87039164 </v>
   <v>       0.62421357       0.87492797       0.87492797 </v>
   <v>       0.37491761       0.37491761       0.37491761 </v>
   <v>       0.87530460       0.37544727       0.37544727 </v>
   <v>       0.37544727       0.87530460       0.37544727 </v>
   <v>       0.87492797       0.87492797       0.37578643 </v>
   <v>       0.37544727       0.37544727       0.87530460 </v>
   <v>       0.87492797       0.37578643       0.87492797 </v>
   <v>       0.37578643       0.87492797       0.87492797 </v>
   <v>       0.87039164       0.87039164       0.87039164 </v>
  </varray>
 </structure>
 <calculation>
  <scstep>
   <time name="dav">   13.38   13.41</time>
   <time name="total">   14.18   14.21</time>
   <energy>
    <i name="alphaZ">    214.09658884 </i>
    <i name="ewald">  -5218.82297444 </i>
    <i name="hartreedc">   -333.03597479 </i>
    <i name="XCdc">  -3539.85006199 </i>
    <i name="pawpsdc">   7100.88161447 </i>
    <i name="pawaedc">  -3112.42095010 </i>
    <i name="eentropy">     -0.00000000 </i>
    <i name="bandstr">    447.64697568 </i>
    <i name="atom">   4763.39200965 </i>
    <i name="e_fr_energy">    321.88722731 </i>
    <i name="e_wo_entrp">    321.88722731 </i>
    <i name="e_0_energy">    321.88722731 </i>
   </energy>
  </scstep>
  <scstep>
   <time name="dav">   15.50   15.52</time>
   <time name="total">   15.50   15.52</time>
   <energy>
    <i name="e_fr_energy">   -253.38047225 </i>
    <i name="e_wo_entrp">   -253.38047225 </i>
    <i name="e_0_energy">   -253.38047225 </i>
   </energy>
  </scstep>
  <scstep>
   <time name="dav">   15.56   15.59</time>
   <time name="total">   15.56   15.59</time>
   <energy>
    <i name="e_fr_energy">   -296.45485951 </i>
    <i name="e_wo_entrp">   -296.45485951 </i>
    <i name="e_0_energy">   -296.45485951 </i>
   </energy>
  </scstep>
  <scstep>
   <time name="dav">   15.25   15.28</time>
   <time name="total">   15.25   15.28</time>
   <energy>
    <i name="e_fr_energy">   -297.34090023 </i>
    <i name="e_wo_entrp">   -297.34090023 </i>
    <i name="e_0_energy">   -297.34090023 </i>
   </energy>
  </scstep>
  <scstep>
   <time name="dav">   15.41   15.44</time>
   <time name="total">   15.82   15.85</time>
   <energy>
    <i name="e_fr_energy">   -297.36471164 </i>
    <i name="e_wo_entrp">   -297.36471164 </i>
    <i name="e_0_energy">   -297.36471164 </i>
   </energy>
  </scstep>
  <scstep>
   <time name="dav">   13.31   13.33</time>
   <time name="total">   14.50   14.53</time>
   <energy>
    <i name="e_fr_energy">   -280.24005476 </i>
    <i name="e_wo_entrp">   -280.24005476 </i>
    <i name="e_0_energy">   -280.24005476 </i>
   </energy>
  </scstep>
  <scstep>
   <time name="dav">   14.17   14.19</time>
   <time name="total">   15.36   15.39</time>
   <energy>
    <i name="e_fr_energy">   -277.76421302 </i>
    <i name="e_wo_entrp">   -277.76421297 </i>
    <i name="e_0_energy">   -277.76421300 </i>
   </energy>
  </scstep>
  <scstep>
   <time name="dav">   14.28   14.31</time>
   <time name="total">   15.48   15.50</time>
   <energy>
    <i name="e_fr_energy">   -277.76836569 </i>
    <i name="e_wo_entrp">   -277.76836569 </i>
    <i name="e_0_energy">   -277.76836569 </i>
   </energy>
  </scstep>
  <scstep>
   <time name="dav">   14.72   14.75</time>
   <time name="total">   15.92   15.95</time>
   <energy>
    <i name="e_fr_energy">   -277.76501559 </i>
    <i name="e_wo_entrp">   -277.76501559 </i>
    <i name="e_0_energy">   -277.76501559 </i>
   </energy>
  </scstep>
  <scstep>
   <time name="dav">   14.50   14.53</time>
   <time name="total">   15.70   15.73</time>
   <energy>
    <i name="e_fr_energy">   -277.76824119 </i>
    <i name="e_wo_entrp">   -277.76824119 </i>
    <i name="e_0_energy">   -277.76824119 </i>
   </energy>
  </scstep>
  <scstep>
   <time name="dav">   14.53   14.56</time>
   <time name="total">   15.72   15.75</time>
   <energy>
    <i name="e_fr_energy">   -277.76867738 </i>
    <i name="e_wo_entrp">   -277.76867738 </i>
    <i name="e_0_energy">   -277.76867738 </i>
   </energy>
  </scstep>
  <scstep>
   <time name="dav">   15.64   15.66</time>
   <time name="total">   16.82   16.85</time>
   <energy>
    <i name="e_fr_energy">   -277.76857948 </i>
    <i name="e_wo_entrp">   -277.76857948 </i>
    <i name="e_0_energy">   -277.76857948 </i>
   </energy>
  </scstep>
  <scstep>
   <time name="dav">   14.96   14.99</time>
   <time name="total">   16.14   16.17</time>
   <energy>
    <i name="e_fr_energy">   -277.76855287 </i>
    <i name="e_wo_entrp">   -277.76855287 </i>
    <i name="e_0_energy">   -277.76855287 </i>
   </energy>
  </scstep>
  <scstep>
   <time name="dav">   14.29   14.32</time>
   <time name="total">   15.48   15.50</time>
   <energy>
    <i name="e_fr_energy">   -277.76855910 </i>
    <i name="e_wo_entrp">   -277.76855910 </i>
    <i name="e_0_energy">   -277.76855910 </i>
   </energy>
  </scstep>
  <scstep>
   <time name="dav">   14.30   14.32</time>
   <time name="total">   15.48   15.51</time>
   <energy>
    <i name="e_fr_energy">   -277.76855878 </i>
    <i name="e_wo_entrp">   -277.76855878 </i>
    <i name="e_0_energy">   -277.76855878 </i>
   </energy>
  </scstep>
  <scstep>
   <time name="dav">   15.19   15.22</time>
   <time name="total">   16.38   16.41</time>
   <energy>
    <i name="e_fr_energy">   -277.76855900 </i>
    <i name="e_wo_entrp">   -277.76855900 </i>
    <i name="e_0_energy">   -277.76855900 </i>
   </energy>
  </scstep>
  <scstep>
   <time name="dav">   14.28   14.31</time>
   <time name="total">   15.47   15.50</time>
   <energy>
    <i name="e_fr_energy">   -277.76855920 </i>
    <i name="e_wo_entrp">   -277.76855920 </i>
    <i name="e_0_energy">   -277.76855920 </i>
   </energy>
  </scstep>
  <scstep>
   <time name="dav">   13.60   13.63</time>
   <time name="total">   14.80   14.82</time>
   <energy>
    <i name="e_fr_energy">   -277.76855918 </i>
    <i name="e_wo_entrp">   -277.76855918 </i>
    <i name="e_0_energy">   -277.76855918 </i>
   </energy>
  </scstep>
  <scstep>
   <time name="dav">   10.68   10.70</time>
   <time name="total">   11.87   11.89</time>
   <energy>
    <i name="e_fr_energy">   -277.76855921 </i>
    <i name="e_wo_entrp">   -277.76855921 </i>
    <i name="e_0_energy">   -277.76855921 </i>
   </energy>
  </scstep>
  <scstep>
   <time name="dav">    9.78    9.80</time>
   <time name="total">   10.97   10.99</time>
   <energy>
    <i name="e_fr_energy">   -277.76855923 </i>
    <i name="e_wo_entrp">   -277.76855923 </i>
    <i name="e_0_energy">   -277.76855923 </i>
   </energy>
  </scstep>
  <scstep>
   <time name="dav">    9.56    9.58</time>
   <time name="total">   10.75   10.77</time>
   <energy>
    <i name="e_fr_energy">   -277.76855922 </i>
    <i name="e_wo_entrp">   -277.76855922 </i>
    <i name="e_0_energy">   -277.76855922 </i>
   </energy>
  </scstep>
  <scstep>
   <time name="dav">    9.79    9.80</time>
   <time name="total">   10.56   10.58</time>
   <energy>
    <i name="alphaZ">    214.09658884 </i>
    <i name="ewald">  -5218.82297444 </i>
    <i name="hartreedc">   -486.13311399 </i>
    <i name="XCdc">  -3511.70750822 </i>
    <i name="pawpsdc">  17714.30230624 </i>
    <i name="pawaedc"> -13730.62412976 </i>
    <i name="eentropy">     -0.00000000 </i>
    <i name="bandstr">    -22.27173754 </i>
    <i name="atom">   4763.39200965 </i>
    <i name="e_fr_energy">   -277.76855922 </i>
    <i name="e_wo_entrp">   -277.76855922 </i>
    <i name="e_0_energy">   -277.76855922 </i>
   </energy>
  </scstep>
  <structure>
   <crystal>
    <varray name="basis" >
     <v>      12.74739769       0.00000000       0.00000000 </v>
     <v>       0.00000000      12.74739769       0.00000000 </v>
     <v>       0.00000000       0.00000000      12.74739769 </v>
    </varray>
    <i name="volume">   2071.40301882 </i>
    <varray name="rec_basis" >
     <v>       0.07844738       0.00000000       0.00000000 </v>
     <v>       0.00000000       0.07844738       0.00000000 </v>
     <v>       0.00000000       0.00000000       0.07844738 </v>
    </varray>
   </crystal>
   <varray name="positions" >
    <v>       0.00000000       0.00000000       0.00000000 </v>
    <v>       0.50000000       0.00000000       0.00000000 </v>
    <v>       0.00000000       0.50000000       0.00000000 </v>
    <v>       0.50000000       0.50000000       0.00000000 </v>
    <v>       0.00000000       0.00000000       0.50000000 </v>
    <v>       0.50000000       0.00000000       0.50000000 </v>
    <v>       0.00000000       0.50000000       0.50000000 </v>
    <v>       0.50000000       0.50000000       0.50000000 </v>
    <v>       0.25140293       0.25140293       0.00000000 </v>
    <v>       0.74859707       0.25140293       0.00000000 </v>
    <v>       0.25140293       0.74859707       0.00000000 </v>
    <v>       0.74859707       0.74859707       0.00000000 </v>
    <v>       0.25012668       0.25012668       0.50000000 </v>
    <v>       0.74987332       0.25012668       0.50000000 </v>
    <v>       0.25012668       0.74987332       0.50000000 </v>
    <v>       0.74987332       0.74987332       0.50000000 </v>
    <v>       0.25140293       0.00000000       0.25140293 </v>
    <v>       0.74859707       0.00000000       0.25140293 </v>
    <v>       0.25012668       0.50000000       0.25012668 </v>
    <v>       0.74987332       0.50000000       0.25012668 </v>
    <v>       0.25140293       0.00000000       0.74859707 </v>
    <v>       0.74859707       0.00000000       0.74859707 </v>
    <v>       0.25012668       0.50000000       0.74987332 </v>
    <v>       0.74987332       0.50000000       0.74987332 </v>
    <v>       0.00000000       0.25140293       0.25140293 </v>
    <v>       0.50000000       0.25012668       0.25012668 </v>
    <v>       0.00000000       0.74859707       0.25140293 </v>
    <v>       0.50000000       0.74987332       0.25012668 </v>
    <v>       0.00000000       0.25140293       0.74859707 </v>
    <v>       0.50000000       0.25012668       0.74987332 </v>
    <v>       0.00000000       0.74859707       0.74859707 </v>
    <v>       0.50000000       0.74987332       0.74987332 </v>
    <v>       0.12960836       0.12960836       0.12960836 </v>
    <v>       0.62342910       0.12507203       0.12507203 </v>
    <v>       0.12507203       0.62421357       0.12507203 </v>
    <v>       0.62455273       0.62455273       0.12469540 </v>
    <v>       0.12507203       0.12507203       0.62421357 </v>
    <v>       0.62455273       0.12469540       0.62455273 </v>
    <v>       0.12469540       0.62455273       0.62455273 </v>
    <v>       0.62508239       0.62508239       0.62508239 </v>
    <v>       0.37578643       0.12507203       0.12507203 </v>
    <v>       0.87039164       0.12960836       0.12960836 </v>
    <v>       0.37544727       0.62455273       0.12469540 </v>
    <v>       0.87492797       0.62421357       0.12507203 </v>
    <v>       0.37544727       0.12469540       0.62455273 </v>
    <v>       0.87492797       0.12507203       0.62421357 </v>
    <v>       0.37491761       0.62508239       0.62508239 </v>
    <v>       0.87530460       0.62455273       0.62455273 </v>
    <v>       0.12507203       0.37578643       0.12507203 </v>
    <v>       0.62455273       0.37544727       0.12469540 </v>
    <v>       0.12960836       0.87039164       0.12960836 </v>
    <v>       0.62421357       0.87492797       0.12507203 </v>
    <v>       0.12469540       0.37544727       0.62455273 </v>
    <v>       0.62508239       0.37491761       0.62508239 </v>
    <v>       0.12507203       0.87492797       0.62421357 </v>
    <v>       0.62455273       0.87530460       0.62455273 </v>
    <v>       0.37544727       0.37544727       0.12469540 </v>
    <v>       0.87492797       0.37578643       0.12507203 </v>
    <v>       0.37578643       0.87492797       0.12507203 </v>
    <v>       0.87039164       0.87039164       0.12960836 </v>
    <v>       0.37491761       0.37491761       0.62508239 </v>
    <v>       0.87530460       0.37544727       0.62455273 </v>
    <v>       0.37544727       0.87530460       0.62455273 </v>
    <v>       0.87492797       0.87492797       0.62421357 </v>
    <v>       0.12507203       0.12507203       0.37578643 </v>
    <v>       0.62455273       0.12469540       0.37544727 </v>
    <v>       0.12469540       0.62455273       0.37544727 </v>
    <v>       0.62508239       0.62508239       0.37491761 </v>
    <v>       0.12960836       0.12960836       0.87039164 </v>
    <v>       0.62421357       0.12507203       0.87492797 </v>
    <v>       0.12507203       0.62421357       0.87492797 </v>
    <v>       0.62455273       0.62455273       0.87530460 </v>
    <v>       0.37544727       0.12469540       0.37544727 </v>
    <v>       0.87492797       0.12507203       0.37578643 </v>
    <v>       0.37491761       0.62508239       0.37491761 </v>
    <v>       0.87530460       0.62455273       0.37544727 </v>
    <v>       0.37578643       0.12507203       0.87492797 </v>
    <v>       0.87039164       0.12960836       0.87039164 </v>
    <v>       0.37544727       0.62455273       0.87530460 </v>
    <v>       0.87492797       0.62421357       0.87492797 </v>
    <v>       0.12469540       0.37544727       0.37544727 </v>
    <v>       0.62508239       0.37491761       0.37491761 </v>
    <v>       0.12507203       0.87492797       0.37578643 </v>
    <v>       0.62455273       0.87530460       0.37544727 </v>
    <v>       0.12507203       0.37578643       0.87492797 </v>
    <v>       0.62455273       0.37544727       0.87530460 </v>
    <v>       0.12960836       0.87039164       0.87039164 </v>
    <v>       0.62421357       0.87492797       0.87492797 </v>
    <v>       0.37491761       0.37491761       0.37491761 </v>
    <v>       0.87530460       0.37544727       0.37544727 </v>
    <v>       0.37544727       0.87530460       0.37544727 </v>
    <v>       0.87492797       0.87492797       0.37578643 </v>
    <v>       0.37544727       0.37544727       0.87530460 </v>
    <v>       0.87492797       0.37578643       0.87492797 </v>
    <v>       0.37578643       0.87492797       0.87492797 </v>
    <v>       0.87039164       0.87039164       0.87039164 </v>
   </varray>
  </structure>
  <varray name="forces" >
   <v>       0.00057487      -0.00017347      -0.00017329 </v>
   <v>      -0.00653659      -0.00376099      -0.00376108 </v>
   <v>       0.00058293       0.00039746       0.00018898 </v>
   <v>      -0.00062317       0.00009612       0.00048665 </v>
   <v>       0.00058300       0.00018888       0.00039750 </v>
   <v>      -0.00062325       0.00048664       0.00009620 </v>
   <v>       0.00020695       0.00003218       0.00003211 </v>
   <v>      -0.00028478      -0.00061952      -0.00061956 </v>
   <v>       0.00706074       0.00610219       0.00026324 </v>
   <v>      -0.01235740       0.00295329       0.00320496 </v>
   <v>       0.00697530      -0.00597085      -0.00017551 </v>
   <v>      -0.00692194      -0.00625694      -0.00042857 </v>
   <v>      -0.00282559      -0.00330049      -0.00037618 </v>
   <v>       0.00287293      -0.00302540      -0.00009199 </v>
   <v>      -0.00321540       0.00345413      -0.00000120 </v>
   <v>       0.00321200       0.00280565       0.00063019 </v>
   <v>       0.00706067       0.00026281       0.00610238 </v>
   <v>      -0.01235732       0.00320497       0.00295299 </v>
   <v>      -0.00282554      -0.00037620      -0.00330038 </v>
   <v>       0.00287288      -0.00009200      -0.00302540 </v>
   <v>       0.00697525      -0.00017554      -0.00597060 </v>
   <v>      -0.00692191      -0.00042815      -0.00625706 </v>
   <v>      -0.00321533      -0.00000117       0.00345408 </v>
   <v>       0.00321194       0.00063021       0.00280561 </v>
   <v>       0.00066189       0.00656356       0.00656367 </v>
   <v>      -0.00656863       0.00026978       0.00026976 </v>
   <v>       0.00055811      -0.00677210       0.00614428 </v>
   <v>      -0.00063400       0.00338053      -0.00391396 </v>
   <v>       0.00055807       0.00614446      -0.00677184 </v>
   <v>      -0.00063395      -0.00391398       0.00338063 </v>
   <v>       0.00017550      -0.00636309      -0.00636337 </v>
   <v>      -0.00030924       0.00407886       0.00407880 </v>
   <v>      -0.01535702      -0.01487295      -0.01487287 </v>
   <v>       0.04189101       0.00081113       0.00081105 </v>
   <v>       0.00046920      -0.00157016       0.00053636 </v>
   <v>      -0.00042551      -0.00047860      -0.00035195 </v>
   <v>       0.00046947       0.00053679      -0.00157064 </v>
   <v>      -0.00042550      -0.00035150      -0.00047905 </v>
   <v>      -0.00052906      -0.00048032      -0.00048074 </v>
   <v>       0.00076598      -0.00090247      -0.00090292 </v>
   <v>      -0.00903390       0.00052709       0.00052719 </v>
   <v>       0.00375336      -0.01503740      -0.01503733 </v>
   <v>       0.00045717      -0.00046992      -0.00035015 </v>
   <v>      -0.00052334      -0.00156851       0.00053005 </v>
   <v>       0.00045717      -0.00035058      -0.00046949 </v>
   <v>      -0.00052361       0.00052957      -0.00156807 </v>
   <v>       0.00016691      -0.00089622      -0.00089573 </v>
   <v>      -0.00038400      -0.00047657      -0.00047614 </v>
   <v>       0.00025193       0.00156899       0.00087112 </v>
   <v>       0.00213753       0.00049119      -0.00171481 </v>
   <v>      -0.01513708       0.01486743      -0.01521063 </v>
   <v>       0.00107400      -0.00048625       0.00187109 </v>
   <v>      -0.00042980       0.00046920      -0.00056598 </v>
   <v>      -0.00029124       0.00090273      -0.00054405 </v>
   <v>       0.00044536      -0.00052684      -0.00148056 </v>
   <v>       0.00012997       0.00034615      -0.00082766 </v>
   <v>      -0.00051594       0.00151389      -0.00104901 </v>
   <v>      -0.00151177       0.00051870      -0.00018224 </v>
   <v>       0.00057453      -0.00156806       0.00122507 </v>
   <v>       0.01388087       0.01589895      -0.01416455 </v>
   <v>       0.00063284       0.00054903      -0.00076192 </v>
   <v>       0.00009353       0.00082135      -0.00033667 </v>
   <v>       0.00020934       0.00069514      -0.00060090 </v>
   <v>      -0.00077952      -0.00087772      -0.00170730 </v>
   <v>       0.00025168       0.00087073       0.00156944 </v>
   <v>       0.00213753      -0.00171524       0.00049162 </v>
   <v>      -0.00042982      -0.00056645       0.00046963 </v>
   <v>      -0.00029125      -0.00054449       0.00090319 </v>
   <v>      -0.01513708      -0.01521064       0.01486740 </v>
   <v>       0.00107398       0.00187085      -0.00048605 </v>
   <v>       0.00044567      -0.00148102      -0.00052637 </v>
   <v>       0.00012998      -0.00082808       0.00034656 </v>
   <v>      -0.00051593      -0.00104859       0.00151348 </v>
   <v>      -0.00151152      -0.00018179       0.00051824 </v>
   <v>       0.00063286      -0.00076147       0.00054856 </v>
   <v>       0.00009353      -0.00033623       0.00082091 </v>
   <v>       0.00057453       0.00122528      -0.00156827 </v>
   <v>       0.01388087      -0.01416453       0.01589886 </v>
   <v>       0.00020929      -0.00060047       0.00069468 </v>
   <v>      -0.00077980      -0.00170687      -0.00087811 </v>
   <v>      -0.00053777       0.00034131       0.00034088 </v>
   <v>       0.00117161       0.00161005       0.00160961 </v>
   <v>       0.00033457      -0.00065311       0.00170688 </v>
   <v>       0.00157308       0.00104713      -0.00019232 </v>
   <v>       0.00033430       0.00170734      -0.00065363 </v>
   <v>       0.00157306      -0.00019186       0.00104668 </v>
   <v>      -0.01504447       0.01499291       0.01499287 </v>
   <v>       0.00047672      -0.00122300      -0.00122313 </v>
   <v>      -0.00115464       0.00136621       0.00136667 </v>
   <v>       0.00051008       0.00038028       0.00038074 </v>
   <v>       0.00064222       0.00025119       0.00056689 </v>
   <v>      -0.00256732      -0.00004248       0.00111111 </v>
   <v>       0.00064221       0.00056646       0.00025162 </v>
   <v>      -0.00256702       0.00111066      -0.00004209 </v>
   <v>      -0.00047640      -0.00099925      -0.00099911 </v>
   <v>       0.01504331       0.01496007       0.01495997 </v>
  </varray>
  <varray name="stress" >
   <v>      -1.01907062      -0.00075817      -0.00075831 </v>
   <v>      -0.00075787      -1.01777020       0.00893393 </v>
   <v>      -0.00075834       0.00893388      -1.01776952 </v>
  </varray>
  <energy>
   <i name="e_fr_energy">   -277.76855922 </i>
   <i name="e_wo_entrp">   -277.76855922 </i>
   <i name="e_0_energy">     -0.00000000 </i>
  </energy>
  <time name="totalsc">  357.52  358.16</time>
  <eigenvalues>
   <array>
    <dimension dim="1">band</dimension>
    <dimension dim="2">kpoint</dimension>
    <dimension dim="3">spin</dimension>
    <field>eigene</field>
    <field>occ</field>
    <set>
     <set comment="spin 1">
      <set comment="kpoint 1">
       <r>   -5.4896    1.0000 </r>
       <r>   -4.7789    1.0000 </r>
       <r>   -4.7778    1.0000 </r>
       <r>   -4.7693    1.0000 </r>
       <r>   -4.7687    1.0000 </r>
       <r>   -4.7682    1.0000 </r>
       <r>   -4.7409    1.0000 </r>
       <r>   -4.2080    1.0000 </r>
       <r>   -4.2065    1.0000 </r>
       <r>   -4.2008    1.0000 </r>
       <r>   -4.2003    1.0000 </r>
       <r>   -4.1997    1.0000 </r>
       <r>   -4.1956    1.0000 </r>
       <r>   -4.1946    1.0000 </r>
       <r>   -4.1945    1.0000 </r>
       <r>   -4.1858    1.0000 </r>
       <r>   -4.1852    1.0000 </r>
       <r>   -4.1845    1.0000 </r>
       <r>   -4.1420    1.0000 </r>
       <r>   -4.0667    1.0000 </r>
       <r>   -4.0656    1.0000 </r>
       <r>   -4.0655    1.0000 </r>
       <r>   -4.0504    1.0000 </r>
       <r>   -3.5080    1.0000 </r>
       <r>   -3.5073    1.0000 </r>
       <r>   -3.4983    1.0000 </r>
       <r>   -3.4683    1.0000 </r>
       <r>   -3.4672    1.0000 </r>
       <r>   -3.4604    1.0000 </r>
       <r>   -3.4601    1.0000 </r>
       <r>   -3.4593    1.0000 </r>
       <r>   -3.3907    1.0000 </r>
       <r>   -1.1924    1.0000 </r>
       <r>   -1.1587    1.0000 </r>
       <r>   -1.1583    1.0000 </r>
       <r>   -1.1575    1.0000 </r>
       <r>   -0.8439    1.0000 </r>
       <r>   -0.8439    1.0000 </r>
       <r>   -0.8439    1.0000 </r>
       <r>   -0.0449    1.0000 </r>
       <r>   -0.0443    1.0000 </r>
       <r>   -0.0431    1.0000 </r>
       <r>   -0.0359    1.0000 </r>
       <r>   -0.0344    1.0000 </r>
       <r>   -0.0336    1.0000 </r>
       <r>   -0.0257    1.0000 </r>
       <r>   -0.0254    1.0000 </r>
       <r>   -0.0252    1.0000 </r>
       <r>   -0.0010    1.0000 </r>
       <r>   -0.0005    1.0000 </r>
       <r>   -0.0003    1.0000 </r>
       <r>    0.0104    1.0000 </r>
       <r>    0.0108    1.0000 </r>
       <r>    0.0109    1.0000 </r>
       <r>    0.0111    1.0000 </r>
       <r>    0.0116    1.0000 </r>
       <r>    0.0140    1.0000 </r>
       <r>    0.0141    1.0000 </r>
       <r>    0.0145    1.0000 </r>
       <r>    0.0539    1.0000 </r>
       <r>    0.0539    1.0000 </r>
       <r>    0.0546    1.0000 </r>
       <r>    0.0683    1.0000 </r>
       <r>    0.7628    1.0000 </r>
       <r>    0.7631    1.0000 </r>
       <r>    0.7696    1.0000 </r>
       <r>    0.7834    1.0000 </r>
       <r>    0.7841    1.0000 </r>
       <r>    0.7842    1.0000 </r>
       <r>    0.8001    1.0000 </r>
       <r>    0.8011    1.0000 </r>
       <r>    0.8011    1.0000 </r>
       <r>    0.8014    1.0000 </r>
       <r>    0.8023    1.0000 </r>
       <r>    0.8025    1.0000 </r>
       <r>    0.9184    1.0000 </r>
       <r>    0.9356    1.0000 </r>
       <r>    0.9357    1.0000 </r>
       <r>    0.9361    1.0000 </r>
       <r>    0.9579    1.0000 </r>
       <r>    0.9579    1.0000 </r>
       <r>    1.1735    1.0000 </r>
       <r>    1.1737    1.0000 </r>
       <r>    1.1737    1.0000 </r>
       <r>    1.1739    1.0000 </r>
       <r>    1.1742    1.0000 </r>
       <r>    1.2243    1.0000 </r>
       <r>    1.6499    1.0000 </r>
       <r>    1.6500    1.0000 </r>
       <r>    1.6502    1.0000 </r>
       <r>    1.6524    1.0000 </r>
       <r>    1.6526    1.0000 </r>
       <r>    1.6527    1.0000 </r>
       <r>    2.3240    1.0000 </r>
       <r>    2.3243    1.0000 </r>
       <r>    2.3249    1.0000 </r>
       <r>    2.3301    1.0000 </r>
       <r>    2.3308    1.0000 </r>
       <r>    2.3312    1.0000 </r>
       <r>    2.3314    1.0000 </r>
       <r>    2.3314    1.0000 </r>
       <r>    2.3316    1.0000 </r>
       <r>    2.3808    1.0000 </r>
       <r>    2.3811    1.0000 </r>
       <r>    2.3813    1.0000 </r>
       <r>    2.7669    1.0000 </r>
       <r>    2.7669    1.0000 </r>
       <r>    2.7676    1.0000 </r>
       <r>    2.7783    1.0000 </r>
       <r>    2.7789    1.0000 </r>
       <r>    2.7797    1.0000 </r>
       <r>    2.7881    1.0000 </r>
       <r>    2.7947    1.0000 </r>
       <r>    2.7956    1.0000 </r>
       <r>    2.8216    1.0000 </r>
       <r>    2.8219    1.0000 </r>
       <r>    2.8224    1.0000 </r>
       <r>    2.8684    1.0000 </r>
       <r>    2.8690    1.0000 </r>
       <r>    2.8945    1.0000 </r>
       <r>    2.8949    1.0000 </r>
       <r>    2.8957    1.0000 </r>
       <r>    2.9788    1.0000 </r>
       <r>    2.9792    1.0000 </r>
       <r>    2.9796    1.0000 </r>
       <r>    3.6209    1.0000 </r>
       <r>    3.6212    1.0000 </r>
       <r>    3.6215    1.0000 </r>
       <r>    3.7511    0.0000 </r>
       <r>    3.7924    0.0000 </r>
       <r>    3.7933    0.0000 </r>
       <r>    3.9521    0.0000 </r>
       <r>    3.9521    0.0000 </r>
       <r>    3.9521    0.0000 </r>
       <r>    4.7271    0.0000 </r>
       <r>    4.7274    0.0000 </r>
       <r>    4.7588    0.0000 </r>
       <r>    4.7590    0.0000 </r>
       <r>    4.7591    0.0000 </r>
       <r>    4.7624    0.0000 </r>
       <r>    4.8101    0.0000 </r>
       <r>    4.8111    0.0000 </r>
       <r>    4.8112    0.0000 </r>
       <r>    4.8418    0.0000 </r>
       <r>    5.3092    0.0000 </r>
       <r>    5.3097    0.0000 </r>
       <r>    5.3107    0.0000 </r>
       <r>    5.3191    0.0000 </r>
       <r>    5.3195    0.0000 </r>
       <r>    5.3249    0.0000 </r>
       <r>    5.3254    0.0000 </r>
       <r>    5.3255    0.0000 </r>
       <r>    5.3334    0.0000 </r>
       <r>    5.3644    0.0000 </r>
       <r>    5.3651    0.0000 </r>
       <r>    5.3653    0.0000 </r>
       <r>    5.3732    0.0000 </r>
       <r>    5.3735    0.0000 </r>
       <r>    5.3738    0.0000 </r>
       <r>    5.3746    0.0000 </r>
       <r>    5.4337    0.0000 </r>
       <r>    5.4340    0.0000 </r>
       <r>    5.5275    0.0000 </r>
       <r>    6.0775    0.0000 </r>
       <r>    6.0785    0.0000 </r>
       <r>    6.0787    0.0000 </r>
       <r>    6.0998    0.0000 </r>
       <r>    6.1003    0.0000 </r>
       <r>    6.1010    0.0000 </r>
       <r>    6.1456    0.0000 </r>
       <r>    6.1456    0.0000 </r>
       <r>    6.1492    0.0000 </r>
       <r>    6.1493    0.0000 </r>
       <r>    6.1496    0.0000 </r>
       <r>    6.2464    0.0000 </r>
       <r>    6.2497    0.0000 </r>
       <r>    6.2571    0.0000 </r>
       <r>    6.2742    0.0000 </r>
      </set>
     </set>
    </set>
   </array>
  </eigenvalues>
  <separator name="orbital magnetization" >
   <v name="MAGDIPOLOUT">      0.00000000      0.00000000      0.00000000</v>
  </separator>
  <dos>
   <i name="efermi">      3.68125611 </i>
   <total>
    <array>
     <dimension dim="1">gridpoints</dimension>
     <dimension dim="2">spin</dimension>
     <field>energy</field>
     <field>total</field>
     <field>integrated</field>
     <set>
      <set comment="spin 1">
       <r>    -6.0778     0.0000     0.0000 </r>
       <r>    -6.0346     0.0000     0.0000 </r>
       <r>    -5.9915     0.0000     0.0000 </r>
       <r>    -5.9484     0.0000     0.0000 </r>
       <r>    -5.9052     0.0000     0.0000 </r>
       <r>    -5.8621     0.0000     0.0000 </r>
       <r>    -5.8190     0.0000     0.0000 </r>
       <r>    -5.7758     0.0000     0.0000 </r>
       <r>    -5.7327     0.0000     0.0000 </r>
       <r>    -5.6896     0.0000     0.0000 </r>
       <r>    -5.6464     0.0000     0.0000 </r>
       <r>    -5.6033     0.0000     0.0000 </r>
       <r>    -5.5602     0.0000     0.0000 </r>
       <r>    -5.5170     0.0024     0.0001 </r>
       <r>    -5.4739    45.7496     1.9735 </r>
       <r>    -5.4308     0.6153     2.0000 </r>
       <r>    -5.3876     0.0000     2.0000 </r>
       <r>    -5.3445     0.0000     2.0000 </r>
       <r>    -5.3014     0.0000     2.0000 </r>
       <r>    -5.2582     0.0000     2.0000 </r>
       <r>    -5.2151     0.0000     2.0000 </r>
       <r>    -5.1720     0.0000     2.0000 </r>
       <r>    -5.1288     0.0000     2.0000 </r>
       <r>    -5.0857     0.0000     2.0000 </r>
       <r>    -5.0426     0.0000     2.0000 </r>
       <r>    -4.9994     0.0000     2.0000 </r>
       <r>    -4.9563     0.0000     2.0000 </r>
       <r>    -4.9132     0.0000     2.0000 </r>
       <r>    -4.8700     0.0000     2.0000 </r>
       <r>    -4.8269     0.0000     2.0000 </r>
       <r>    -4.7838    23.0460     2.9941 </r>
       <r>    -4.7406   232.6724    13.0301 </r>
       <r>    -4.6975    22.4854    14.0000 </r>
       <r>    -4.6544     0.0000    14.0000 </r>
       <r>    -4.6112     0.0000    14.0000 </r>
       <r>    -4.5681     0.0000    14.0000 </r>
       <r>    -4.5250     0.0000    14.0000 </r>
       <r>    -4.4818     0.0000    14.0000 </r>
       <r>    -4.4387     0.0000    14.0000 </r>
       <r>    -4.3956     0.0000    14.0000 </r>
       <r>    -4.3524     0.0000    14.0000 </r>
       <r>    -4.3093     0.0000    14.0000 </r>
       <r>    -4.2662     0.0000    14.0000 </r>
       <r>    -4.2230     1.3274    14.0573 </r>
       <r>    -4.1799   474.2395    34.5130 </r>
       <r>    -4.1368    70.1278    37.5379 </r>
       <r>    -4.0936    10.7194    38.0003 </r>
       <r>    -4.0505   159.9558    44.8998 </r>
       <r>    -4.0074    25.5069    46.0000 </r>
       <r>    -3.9642     0.0000    46.0000 </r>
       <r>    -3.9211     0.0000    46.0000 </r>
       <r>    -3.8780     0.0000    46.0000 </r>
       <r>    -3.8348     0.0000    46.0000 </r>
       <r>    -3.7917     0.0000    46.0000 </r>
       <r>    -3.7485     0.0000    46.0000 </r>
       <r>    -3.7054     0.0000    46.0000 </r>
       <r>    -3.6623     0.0000    46.0000 </r>
       <r>    -3.6191     0.0000    46.0000 </r>
       <r>    -3.5760     0.0000    46.0000 </r>
       <r>    -3.5329     0.0172    46.0007 </r>
       <r>    -3.4897   133.4411    51.7566 </r>
       <r>    -3.4466   233.1545    61.8134 </r>
       <r>    -3.4035     5.9721    62.0710 </r>
       <r>    -3.3603    44.7204    64.0000 </r>
       <r>    -3.3172     0.0004    64.0000 </r>
       <r>    -3.2741     0.0000    64.0000 </r>
       <r>    -3.2309     0.0000    64.0000 </r>
       <r>    -3.1878     0.0000    64.0000 </r>
       <r>    -3.1447     0.0000    64.0000 </r>
       <r>    -3.1015     0.0000    64.0000 </r>
       <r>    -3.0584     0.0000    64.0000 </r>
       <r>    -3.0153     0.0000    64.0000 </r>
       <r>    -2.9721     0.0000    64.0000 </r>
       <r>    -2.9290     0.0000    64.0000 </r>
       <r>    -2.8859     0.0000    64.0000 </r>
       <r>    -2.8427     0.0000    64.0000 </r>
       <r>    -2.7996     0.0000    64.0000 </r>
       <r>    -2.7565     0.0000    64.0000 </r>
       <r>    -2.7133     0.0000    64.0000 </r>
       <r>    -2.6702     0.0000    64.0000 </r>
       <r>    -2.6271     0.0000    64.0000 </r>
       <r>    -2.5839     0.0000    64.0000 </r>
       <r>    -2.5408     0.0000    64.0000 </r>
       <r>    -2.4977     0.0000    64.0000 </r>
       <r>    -2.4545     0.0000    64.0000 </r>
       <r>    -2.4114     0.0000    64.0000 </r>
       <r>    -2.3683     0.0000    64.0000 </r>
       <r>    -2.3251     0.0000    64.0000 </r>
       <r>    -2.2820     0.0000    64.0000 </r>
       <r>    -2.2389     0.0000    64.0000 </r>
       <r>    -2.1957     0.0000    64.0000 </r>
       <r>    -2.1526     0.0000    64.0000 </r>
       <r>    -2.1095     0.0000    64.0000 </r>
       <r>    -2.0663     0.0000    64.0000 </r>
       <r>    -2.0232     0.0000    64.0000 </r>
       <r>    -1.9801     0.0000    64.0000 </r>
       <r>    -1.9369     0.0000    64.0000 </r>
       <r>    -1.8938     0.0000    64.0000 </r>
       <r>    -1.8507     0.0000    64.0000 </r>
       <r>    -1.8075     0.0000    64.0000 </r>
       <r>    -1.7644     0.0000    64.0000 </r>
       <r>    -1.7213     0.0000    64.0000 </r>
       <r>    -1.6781     0.0000    64.0000 </r>
       <r>    -1.6350     0.0000    64.0000 </r>
       <r>    -1.5919     0.0000    64.0000 </r>
       <r>    -1.5487     0.0000    64.0000 </r>
       <r>    -1.5056     0.0000    64.0000 </r>
       <r>    -1.4625     0.0000    64.0000 </r>
       <r>    -1.4193     0.0000    64.0000 </r>
       <r>    -1.3762     0.0000    64.0000 </r>
       <r>    -1.3331     0.0000    64.0000 </r>
       <r>    -1.2899     0.0000    64.0000 </r>
       <r>    -1.2468     0.0000    64.0000 </r>
       <r>    -1.2037     2.5953    64.1119 </r>
       <r>    -1.1605    95.4627    68.2296 </r>
       <r>    -1.1174    87.4112    72.0000 </r>
       <r>    -1.0743     0.0000    72.0000 </r>
       <r>    -1.0311     0.0000    72.0000 </r>
       <r>    -0.9880     0.0000    72.0000 </r>
       <r>    -0.9448     0.0000    72.0000 </r>
       <r>    -0.9017     0.0000    72.0000 </r>
       <r>    -0.8586     2.6404    72.1139 </r>
       <r>    -0.8154   136.4576    77.9998 </r>
       <r>    -0.7723     0.0040    78.0000 </r>
       <r>    -0.7292     0.0000    78.0000 </r>
       <r>    -0.6860     0.0000    78.0000 </r>
       <r>    -0.6429     0.0000    78.0000 </r>
       <r>    -0.5998     0.0000    78.0000 </r>
       <r>    -0.5566     0.0000    78.0000 </r>
       <r>    -0.5135     0.0000    78.0000 </r>
       <r>    -0.4704     0.0000    78.0000 </r>
       <r>    -0.4272     0.0000    78.0000 </r>
       <r>    -0.3841     0.0000    78.0000 </r>
       <r>    -0.3410     0.0000    78.0000 </r>
       <r>    -0.2978     0.0000    78.0000 </r>
       <r>    -0.2547     0.0000    78.0000 </r>
       <r>    -0.2116     0.0000    78.0000 </r>
       <r>    -0.1684     0.0000    78.0000 </r>
       <r>    -0.1253     0.0000    78.0000 </r>
       <r>    -0.0822     0.0000    78.0000 </r>
       <r>    -0.0390   147.2110    84.3498 </r>
       <r>     0.0041   422.9988   102.5953 </r>
       <r>     0.0472   380.0560   118.9886 </r>
       <r>     0.0904   162.5077   125.9982 </r>
       <r>     0.1335     0.0417   126.0000 </r>
       <r>     0.1766     0.0000   126.0000 </r>
       <r>     0.2198     0.0000   126.0000 </r>
       <r>     0.2629     0.0000   126.0000 </r>
       <r>     0.3060     0.0000   126.0000 </r>
       <r>     0.3492     0.0000   126.0000 </r>
       <r>     0.3923     0.0000   126.0000 </r>
       <r>     0.4354     0.0000   126.0000 </r>
       <r>     0.4786     0.0000   126.0000 </r>
       <r>     0.5217     0.0000   126.0000 </r>
       <r>     0.5648     0.0000   126.0000 </r>
       <r>     0.6080     0.0000   126.0000 </r>
       <r>     0.6511     0.0000   126.0000 </r>
       <r>     0.6942     0.0000   126.0000 </r>
       <r>     0.7374     0.0140   126.0006 </r>
       <r>     0.7805   179.9426   133.7622 </r>
       <r>     0.8236   376.2004   149.9892 </r>
       <r>     0.8668     0.2505   150.0000 </r>
       <r>     0.9099     5.2813   150.2278 </r>
       <r>     0.9530   202.0371   158.9424 </r>
       <r>     0.9962    70.8854   162.0000 </r>
       <r>     1.0393     0.0000   162.0000 </r>
       <r>     1.0824     0.0000   162.0000 </r>
       <r>     1.1256     0.0000   162.0000 </r>
       <r>     1.1687    54.8248   164.3648 </r>
       <r>     1.2118   178.8138   172.0777 </r>
       <r>     1.2550    44.5648   174.0000 </r>
       <r>     1.2981     0.0003   174.0000 </r>
       <r>     1.3412     0.0000   174.0000 </r>
       <r>     1.3844     0.0000   174.0000 </r>
       <r>     1.4275     0.0000   174.0000 </r>
       <r>     1.4706     0.0000   174.0000 </r>
       <r>     1.5138     0.0000   174.0000 </r>
       <r>     1.5569     0.0000   174.0000 </r>
       <r>     1.6000     0.0000   174.0000 </r>
       <r>     1.6432    35.8160   175.5449 </r>
       <r>     1.6863   242.3877   186.0000 </r>
       <r>     1.7294     0.0001   186.0000 </r>
       <r>     1.7726     0.0000   186.0000 </r>
       <r>     1.8157     0.0000   186.0000 </r>
       <r>     1.8589     0.0000   186.0000 </r>
       <r>     1.9020     0.0000   186.0000 </r>
       <r>     1.9451     0.0000   186.0000 </r>
       <r>     1.9883     0.0000   186.0000 </r>
       <r>     2.0314     0.0000   186.0000 </r>
       <r>     2.0745     0.0000   186.0000 </r>
       <r>     2.1177     0.0000   186.0000 </r>
       <r>     2.1608     0.0000   186.0000 </r>
       <r>     2.2039     0.0000   186.0000 </r>
       <r>     2.2471     0.0000   186.0000 </r>
       <r>     2.2902     0.0001   186.0000 </r>
       <r>     2.3333   298.1269   198.8594 </r>
       <r>     2.3765   155.0341   205.5466 </r>
       <r>     2.4196   103.2465   210.0000 </r>
       <r>     2.4627     0.0000   210.0000 </r>
       <r>     2.5059     0.0000   210.0000 </r>
       <r>     2.5490     0.0000   210.0000 </r>
       <r>     2.5921     0.0000   210.0000 </r>
       <r>     2.6353     0.0000   210.0000 </r>
       <r>     2.6784     0.0000   210.0000 </r>
       <r>     2.7215     0.0000   210.0000 </r>
       <r>     2.7647    53.5845   212.3113 </r>
       <r>     2.8078   363.3109   227.9823 </r>
       <r>     2.8509   140.0666   234.0239 </r>
       <r>     2.8941   154.4619   240.6865 </r>
       <r>     2.9372    76.8202   244.0000 </r>
       <r>     2.9803    78.3883   247.3812 </r>
       <r>     3.0235    60.7136   250.0000 </r>
       <r>     3.0666     0.0000   250.0000 </r>
       <r>     3.1097     0.0000   250.0000 </r>
       <r>     3.1529     0.0000   250.0000 </r>
       <r>     3.1960     0.0000   250.0000 </r>
       <r>     3.2391     0.0000   250.0000 </r>
       <r>     3.2823     0.0000   250.0000 </r>
       <r>     3.3254     0.0000   250.0000 </r>
       <r>     3.3685     0.0000   250.0000 </r>
       <r>     3.4117     0.0000   250.0000 </r>
       <r>     3.4548     0.0000   250.0000 </r>
       <r>     3.4979     0.0000   250.0000 </r>
       <r>     3.5411     0.0000   250.0000 </r>
       <r>     3.5842     0.0000   250.0000 </r>
       <r>     3.6273   112.2052   254.8398 </r>
       <r>     3.6705    26.8967   256.0000 </r>
       <r>     3.7136     0.0000   256.0000 </r>
       <r>     3.7567    36.4374   257.5717 </r>
       <r>     3.7999    87.7739   261.3577 </r>
       <r>     3.8430    14.8905   262.0000 </r>
       <r>     3.8861     0.0000   262.0000 </r>
       <r>     3.9293     0.0861   262.0037 </r>
       <r>     3.9724   138.7304   267.9877 </r>
       <r>     4.0155     0.2854   268.0000 </r>
       <r>     4.0587     0.0000   268.0000 </r>
       <r>     4.1018     0.0000   268.0000 </r>
       <r>     4.1449     0.0000   268.0000 </r>
       <r>     4.1881     0.0000   268.0000 </r>
       <r>     4.2312     0.0000   268.0000 </r>
       <r>     4.2743     0.0000   268.0000 </r>
       <r>     4.3175     0.0000   268.0000 </r>
       <r>     4.3606     0.0000   268.0000 </r>
       <r>     4.4037     0.0000   268.0000 </r>
       <r>     4.4469     0.0000   268.0000 </r>
       <r>     4.4900     0.0000   268.0000 </r>
       <r>     4.5331     0.0000   268.0000 </r>
       <r>     4.5763     0.0000   268.0000 </r>
       <r>     4.6194     0.0000   268.0000 </r>
       <r>     4.6626     0.0000   268.0000 </r>
       <r>     4.7057     0.1068   268.0046 </r>
       <r>     4.7488   104.3550   272.5058 </r>
       <r>     4.7920   174.2877   280.0235 </r>
       <r>     4.8351   146.4213   286.3393 </r>
       <r>     4.8782    38.5022   288.0000 </r>
       <r>     4.9214     0.0000   288.0000 </r>
       <r>     4.9645     0.0000   288.0000 </r>
       <r>     5.0076     0.0000   288.0000 </r>
       <r>     5.0508     0.0000   288.0000 </r>
       <r>     5.0939     0.0000   288.0000 </r>
       <r>     5.1370     0.0000   288.0000 </r>
       <r>     5.1802     0.0000   288.0000 </r>
       <r>     5.2233     0.0000   288.0000 </r>
       <r>     5.2664     0.0000   288.0000 </r>
       <r>     5.3096    76.9996   291.3213 </r>
       <r>     5.3527   346.3038   306.2587 </r>
       <r>     5.3958   318.3990   319.9925 </r>
       <r>     5.4390    71.0386   323.0566 </r>
       <r>     5.4821    21.8703   324.0000 </r>
       <r>     5.5252    17.4086   324.7509 </r>
       <r>     5.5684    28.9587   326.0000 </r>
       <r>     5.6115     0.0000   326.0000 </r>
       <r>     5.6546     0.0000   326.0000 </r>
       <r>     5.6978     0.0000   326.0000 </r>
       <r>     5.7409     0.0000   326.0000 </r>
       <r>     5.7840     0.0000   326.0000 </r>
       <r>     5.8272     0.0000   326.0000 </r>
       <r>     5.8703     0.0000   326.0000 </r>
       <r>     5.9134     0.0000   326.0000 </r>
       <r>     5.9566     0.0000   326.0000 </r>
       <r>     5.9997     0.0000   326.0000 </r>
       <r>     6.0428     0.0000   326.0000 </r>
       <r>     6.0860   122.9381   331.3028 </r>
       <r>     6.1291   156.4609   338.0516 </r>
       <r>     6.1722   230.5480   347.9960 </r>
       <r>     6.2154     0.0936   348.0000 </r>
       <r>     6.2585   113.2149   352.8834 </r>
       <r>     6.3016    72.2516   355.9999 </r>
       <r>     6.3448     0.0024   356.0000 </r>
       <r>     6.3879     0.0000   356.0000 </r>
       <r>     6.4310     0.0000   356.0000 </r>
       <r>     6.4742     0.0000   356.0000 </r>
       <r>     6.5173     0.0000   356.0000 </r>
       <r>     6.5604     0.0000   356.0000 </r>
       <r>     6.6036     0.0000   356.0000 </r>
       <r>     6.6467     0.0000   356.0000 </r>
       <r>     6.6898     0.0000   356.0000 </r>
       <r>     6.7330     0.0000   356.0000 </r>
       <r>     6.7761     0.0000   356.0000 </r>
       <r>     6.8192     0.0000   356.0000 </r>
       <r>     6.8624     0.0000   356.0000 </r>
      </set>
     </set>
    </array>
   </total>
  </dos>
 </calculation>
 <structure name="finalpos" >
  <crystal>
   <varray name="basis" >
    <v>      12.74739769       0.00000000       0.00000000 </v>
    <v>       0.00000000      12.74739769       0.00000000 </v>
    <v>       0.00000000       0.00000000      12.74739769 </v>
   </varray>
   <i name="volume">   2071.40301882 </i>
   <varray name="rec_basis" >
    <v>       0.07844738       0.00000000       0.00000000 </v>
    <v>       0.00000000       0.07844738       0.00000000 </v>
    <v>       0.00000000       0.00000000       0.07844738 </v>
   </varray>
  </crystal>
  <varray name="positions" >
   <v>       0.00000000       0.00000000       0.00000000 </v>
   <v>       0.50000000       0.00000000       0.00000000 </v>
   <v>       0.00000000       0.50000000       0.00000000 </v>
   <v>       0.50000000       0.50000000       0.00000000 </v>
   <v>       0.00000000       0.00000000       0.50000000 </v>
   <v>       0.50000000       0.00000000       0.50000000 </v>
   <v>       0.00000000       0.50000000       0.50000000 </v>
   <v>       0.50000000       0.50000000       0.50000000 </v>
   <v>       0.25140293       0.25140293       0.00000000 </v>
   <v>       0.74859707       0.25140293       0.00000000 </v>
   <v>       0.25140293       0.74859707       0.00000000 </v>
   <v>       0.74859707       0.74859707       0.00000000 </v>
   <v>       0.25012668       0.25012668       0.50000000 </v>
   <v>       0.74987332       0.25012668       0.50000000 </v>
   <v>       0.25012668       0.74987332       0.50000000 </v>
   <v>       0.74987332       0.74987332       0.50000000 </v>
   <v>       0.25140293       0.00000000       0.25140293 </v>
   <v>       0.74859707       0.00000000       0.25140293 </v>
   <v>       0.25012668       0.50000000       0.25012668 </v>
   <v>       0.74987332       0.50000000       0.25012668 </v>
   <v>       0.25140293       0.00000000       0.74859707 </v>
   <v>       0.74859707       0.00000000       0.74859707 </v>
   <v>       0.25012668       0.50000000       0.74987332 </v>
   <v>       0.74987332       0.50000000       0.74987332 </v>
   <v>       0.00000000       0.25140293       0.25140293 </v>
   <v>       0.50000000       0.25012668       0.25012668 </v>
   <v>       0.00000000       0.74859707       0.25140293 </v>
   <v>       0.50000000       0.74987332       0.25012668 </v>
   <v>       0.00000000       0.25140293       0.74859707 </v>
   <v>       0.50000000       0.25012668       0.74987332 </v>
   <v>       0.00000000       0.74859707       0.74859707 </v>
   <v>       0.50000000       0.74987332       0.74987332 </v>
   <v>       0.12960836       0.12960836       0.12960836 </v>
   <v>       0.62342910       0.12507203       0.12507203 </v>
   <v>       0.12507203       0.62421357       0.12507203 </v>
   <v>       0.62455273       0.62455273       0.12469540 </v>
   <v>       0.12507203       0.12507203       0.62421357 </v>
   <v>       0.62455273       0.12469540       0.62455273 </v>
   <v>       0.12469540       0.62455273       0.62455273 </v>
   <v>       0.62508239       0.62508239       0.62508239 </v>
   <v>       0.37578643       0.12507203       0.12507203 </v>
   <v>       0.87039164       0.12960836       0.12960836 </v>
   <v>       0.37544727       0.62455273       0.12469540 </v>
   <v>       0.87492797       0.62421357       0.12507203 </v>
   <v>       0.37544727       0.12469540       0.62455273 </v>
   <v>       0.87492797       0.12507203       0.62421357 </v>
   <v>       0.37491761       0.62508239       0.62508239 </v>
   <v>       0.87530460       0.62455273       0.62455273 </v>
   <v>       0.12507203       0.37578643       0.12507203 </v>
   <v>       0.62455273       0.37544727       0.12469540 </v>
   <v>       0.12960836       0.87039164       0.12960836 </v>
   <v>       0.62421357       0.87492797       0.12507203 </v>
   <v>       0.12469540       0.37544727       0.62455273 </v>
   <v>       0.62508239       0.37491761       0.62508239 </v>
   <v>       0.12507203       0.87492797       0.62421357 </v>
   <v>       0.62455273       0.87530460       0.62455273 </v>
   <v>       0.37544727       0.37544727       0.12469540 </v>
   <v>       0.87492797       0.37578643       0.12507203 </v>
   <v>       0.37578643       0.87492797       0.12507203 </v>
   <v>       0.87039164       0.87039164       0.12960836 </v>
   <v>       0.37491761       0.37491761       0.62508239 </v>
   <v>       0.87530460       0.37544727       0.62455273 </v>
   <v>       0.37544727       0.87530460       0.62455273 </v>
   <v>       0.87492797       0.87492797       0.62421357 </v>
   <v>       0.12507203       0.12507203       0.37578643 </v>
   <v>       0.62455273       0.12469540       0.37544727 </v>
   <v>       0.12469540       0.62455273       0.37544727 </v>
   <v>       0.62508239       0.62508239       0.37491761 </v>
   <v>       0.12960836       0.12960836       0.87039164 </v>
   <v>       0.62421357       0.12507203       0.87492797 </v>
   <v>       0.12507203       0.62421357       0.87492797 </v>
   <v>       0.62455273       0.62455273       0.87530460 </v>
   <v>       0.37544727       0.12469540       0.37544727 </v>
   <v>       0.87492797       0.12507203       0.37578643 </v>
   <v>       0.37491761       0.62508239       0.37491761 </v>
   <v>       0.87530460       0.62455273       0.37544727 </v>
   <v>       0.37578643       0.12507203       0.87492797 </v>
   <v>       0.87039164       0.12960836       0.87039164 </v>
   <v>       0.37544727       0.62455273       0.87530460 </v>
   <v>       0.87492797       0.62421357       0.87492797 </v>
   <v>       0.12469540       0.37544727       0.37544727 </v>
   <v>       0.62508239       0.37491761       0.37491761 </v>
   <v>       0.12507203       0.87492797       0.37578643 </v>
   <v>       0.62455273       0.87530460       0.37544727 </v>
   <v>       0.12507203       0.37578643       0.87492797 </v>
   <v>       0.62455273       0.37544727       0.87530460 </v>
   <v>       0.12960836       0.87039164       0.87039164 </v>
   <v>       0.62421357       0.87492797       0.87492797 </v>
   <v>       0.37491761       0.37491761       0.37491761 </v>
   <v>       0.87530460       0.37544727       0.37544727 </v>
   <v>       0.37544727       0.87530460       0.37544727 </v>
   <v>       0.87492797       0.87492797       0.37578643 </v>
   <v>       0.37544727       0.37544727       0.87530460 </v>
   <v>       0.87492797       0.37578643       0.87492797 </v>
   <v>       0.37578643       0.87492797       0.87492797 </v>
   <v>       0.87039164       0.87039164       0.87039164 </v>
  </varray>
 </structure>
</modeling>
