<?xml version="1.0" encoding="ISO-8859-1"?>
<modeling>
 <generator>
  <i name="program" type="string">vasp </i>
  <i name="version" type="string">5.4.4.18Apr17-6-g9f103f2a35  </i>
  <i name="subversion" type="string">(build Apr 28 2017 11:12:57) complex            parallel </i>
  <i name="platform" type="string">LinuxIFC </i>
  <i name="date" type="string">2018 06 27 </i>
  <i name="time" type="string">23:38:20 </i>
 </generator>
 <incar>
  <i type="string" name="PREC">accurate</i>
  <i type="int" name="IALGO">    38</i>
  <i type="int" name="IBRION">    -1</i>
  <i name="EDIFF">      0.00000001</i>
  <i type="int" name="ISYM">     0</i>
  <i name="ENCUT">    270.00000000</i>
  <i type="logical" name="LREAL"> F  </i>
  <i type="int" name="ISMEAR">     0</i>
  <i name="SIGMA">      0.01000000</i>
  <i type="logical" name="LWAVE"> F  </i>
  <i type="logical" name="LCHARG"> F  </i>
  <v type="int" name="KPOINT_BSE">    -1     0     0     0</v>
 </incar>
 <structure name="primitive_cell" >
  <crystal>
   <varray name="basis" >
    <v>      12.74739769       0.00000000       0.00000000 </v>
    <v>       0.00000000      12.74739769       0.00000000 </v>
    <v>       0.00000000       0.00000000      12.74739769 </v>
   </varray>
   <i name="volume">   2071.40301882 </i>
   <varray name="rec_basis" >
    <v>       0.07844738       0.00000000       0.00000000 </v>
    <v>       0.00000000       0.07844738       0.00000000 </v>
    <v>       0.00000000       0.00000000       0.07844738 </v>
   </varray>
  </crystal>
  <varray name="positions" >
   <v>       0.00000000       0.00000000       0.00000000 </v>
   <v>       0.12960836       0.12960836       0.12960836 </v>
   <v>      -0.12960836       0.12960836       0.12960836 </v>
   <v>       0.12960836      -0.12960836       0.12960836 </v>
   <v>      -0.12960836      -0.12960836       0.12960836 </v>
   <v>       0.12960836       0.12960836      -0.12960836 </v>
   <v>      -0.12960836       0.12960836      -0.12960836 </v>
   <v>       0.12960836      -0.12960836      -0.12960836 </v>
   <v>      -0.12960836      -0.12960836      -0.12960836 </v>
   <v>       0.25140293       0.25140293       0.00000000 </v>
   <v>      -0.25140293       0.25140293       0.00000000 </v>
   <v>       0.25140293      -0.25140293       0.00000000 </v>
   <v>      -0.25140293      -0.25140293       0.00000000 </v>
   <v>       0.25140293       0.00000000       0.25140293 </v>
   <v>      -0.25140293       0.00000000       0.25140293 </v>
   <v>       0.25140293       0.00000000      -0.25140293 </v>
   <v>      -0.25140293       0.00000000      -0.25140293 </v>
   <v>       0.00000000       0.25140293       0.25140293 </v>
   <v>       0.00000000      -0.25140293       0.25140293 </v>
   <v>       0.00000000       0.25140293      -0.25140293 </v>
   <v>       0.00000000      -0.25140293      -0.25140293 </v>
   <v>      -0.37578643       0.12507203       0.12507203 </v>
   <v>       0.12507203      -0.37578643       0.12507203 </v>
   <v>       0.12507203       0.12507203      -0.37578643 </v>
   <v>       0.37578643       0.12507203       0.12507203 </v>
   <v>      -0.12507203      -0.37578643       0.12507203 </v>
   <v>      -0.12507203       0.12507203      -0.37578643 </v>
   <v>       0.12507203       0.37578643       0.12507203 </v>
   <v>      -0.37578643      -0.12507203       0.12507203 </v>
   <v>       0.12507203      -0.12507203      -0.37578643 </v>
   <v>      -0.12507203       0.37578643       0.12507203 </v>
   <v>       0.37578643      -0.12507203       0.12507203 </v>
   <v>      -0.12507203      -0.12507203      -0.37578643 </v>
   <v>       0.12507203       0.12507203       0.37578643 </v>
   <v>      -0.37578643       0.12507203      -0.12507203 </v>
   <v>       0.12507203      -0.37578643      -0.12507203 </v>
   <v>      -0.12507203       0.12507203       0.37578643 </v>
   <v>       0.37578643       0.12507203      -0.12507203 </v>
   <v>      -0.12507203      -0.37578643      -0.12507203 </v>
   <v>       0.12507203      -0.12507203       0.37578643 </v>
   <v>       0.12507203       0.37578643      -0.12507203 </v>
   <v>      -0.37578643      -0.12507203      -0.12507203 </v>
   <v>      -0.12507203      -0.12507203       0.37578643 </v>
   <v>      -0.12507203       0.37578643      -0.12507203 </v>
   <v>       0.37578643      -0.12507203      -0.12507203 </v>
   <v>      -0.50000000       0.00000000       0.00000000 </v>
   <v>       0.00000000      -0.50000000       0.00000000 </v>
   <v>       0.00000000       0.00000000      -0.50000000 </v>
   <v>      -0.37544727      -0.37544727       0.12469540 </v>
   <v>      -0.37544727       0.12469540      -0.37544727 </v>
   <v>       0.12469540      -0.37544727      -0.37544727 </v>
   <v>       0.37544727      -0.37544727       0.12469540 </v>
   <v>       0.37544727       0.12469540      -0.37544727 </v>
   <v>      -0.12469540      -0.37544727      -0.37544727 </v>
   <v>      -0.37544727       0.37544727       0.12469540 </v>
   <v>       0.12469540       0.37544727      -0.37544727 </v>
   <v>      -0.37544727      -0.12469540      -0.37544727 </v>
   <v>       0.37544727       0.37544727       0.12469540 </v>
   <v>      -0.12469540       0.37544727      -0.37544727 </v>
   <v>       0.37544727      -0.12469540      -0.37544727 </v>
   <v>      -0.37544727       0.12469540       0.37544727 </v>
   <v>       0.12469540      -0.37544727       0.37544727 </v>
   <v>      -0.37544727      -0.37544727      -0.12469540 </v>
   <v>       0.37544727       0.12469540       0.37544727 </v>
   <v>      -0.12469540      -0.37544727       0.37544727 </v>
   <v>       0.37544727      -0.37544727      -0.12469540 </v>
   <v>       0.12469540       0.37544727       0.37544727 </v>
   <v>      -0.37544727      -0.12469540       0.37544727 </v>
   <v>      -0.37544727       0.37544727      -0.12469540 </v>
   <v>      -0.12469540       0.37544727       0.37544727 </v>
   <v>       0.37544727      -0.12469540       0.37544727 </v>
   <v>       0.37544727       0.37544727      -0.12469540 </v>
   <v>       0.25012668       0.25012668      -0.50000000 </v>
   <v>      -0.25012668       0.25012668      -0.50000000 </v>
   <v>       0.25012668      -0.25012668      -0.50000000 </v>
   <v>      -0.25012668      -0.25012668      -0.50000000 </v>
   <v>       0.25012668      -0.50000000       0.25012668 </v>
   <v>      -0.25012668      -0.50000000       0.25012668 </v>
   <v>       0.25012668      -0.50000000      -0.25012668 </v>
   <v>      -0.25012668      -0.50000000      -0.25012668 </v>
   <v>      -0.50000000       0.25012668       0.25012668 </v>
   <v>      -0.50000000      -0.25012668       0.25012668 </v>
   <v>      -0.50000000       0.25012668      -0.25012668 </v>
   <v>      -0.50000000      -0.25012668      -0.25012668 </v>
   <v>       0.37491761      -0.37491761      -0.37491761 </v>
   <v>      -0.37491761       0.37491761      -0.37491761 </v>
   <v>       0.37491761       0.37491761      -0.37491761 </v>
   <v>      -0.37491761      -0.37491761       0.37491761 </v>
   <v>       0.37491761      -0.37491761       0.37491761 </v>
   <v>      -0.37491761       0.37491761       0.37491761 </v>
   <v>       0.37491761       0.37491761       0.37491761 </v>
   <v>      -0.37570208      -0.37491761      -0.37491761 </v>
   <v>      -0.50000000      -0.50000000       0.00000000 </v>
   <v>      -0.50000000       0.00000000      -0.50000000 </v>
   <v>       0.00000000      -0.50000000      -0.50000000 </v>
   <v>      -0.50000000      -0.50000000      -0.50000000 </v>
  </varray>
 </structure>
 <varray name="primitive_index" >
  <v type="int" >        1 </v>
  <v type="int" >       33 </v>
  <v type="int" >       42 </v>
  <v type="int" >       51 </v>
  <v type="int" >       60 </v>
  <v type="int" >       69 </v>
  <v type="int" >       78 </v>
  <v type="int" >       87 </v>
  <v type="int" >       96 </v>
  <v type="int" >        9 </v>
  <v type="int" >       10 </v>
  <v type="int" >       11 </v>
  <v type="int" >       12 </v>
  <v type="int" >       17 </v>
  <v type="int" >       18 </v>
  <v type="int" >       21 </v>
  <v type="int" >       22 </v>
  <v type="int" >       25 </v>
  <v type="int" >       27 </v>
  <v type="int" >       29 </v>
  <v type="int" >       31 </v>
  <v type="int" >       34 </v>
  <v type="int" >       35 </v>
  <v type="int" >       37 </v>
  <v type="int" >       41 </v>
  <v type="int" >       44 </v>
  <v type="int" >       46 </v>
  <v type="int" >       49 </v>
  <v type="int" >       52 </v>
  <v type="int" >       55 </v>
  <v type="int" >       58 </v>
  <v type="int" >       59 </v>
  <v type="int" >       64 </v>
  <v type="int" >       65 </v>
  <v type="int" >       70 </v>
  <v type="int" >       71 </v>
  <v type="int" >       74 </v>
  <v type="int" >       77 </v>
  <v type="int" >       80 </v>
  <v type="int" >       83 </v>
  <v type="int" >       85 </v>
  <v type="int" >       88 </v>
  <v type="int" >       92 </v>
  <v type="int" >       94 </v>
  <v type="int" >       95 </v>
  <v type="int" >        2 </v>
  <v type="int" >        3 </v>
  <v type="int" >        5 </v>
  <v type="int" >       36 </v>
  <v type="int" >       38 </v>
  <v type="int" >       39 </v>
  <v type="int" >       43 </v>
  <v type="int" >       45 </v>
  <v type="int" >       48 </v>
  <v type="int" >       50 </v>
  <v type="int" >       53 </v>
  <v type="int" >       56 </v>
  <v type="int" >       57 </v>
  <v type="int" >       62 </v>
  <v type="int" >       63 </v>
  <v type="int" >       66 </v>
  <v type="int" >       67 </v>
  <v type="int" >       72 </v>
  <v type="int" >       73 </v>
  <v type="int" >       76 </v>
  <v type="int" >       79 </v>
  <v type="int" >       81 </v>
  <v type="int" >       84 </v>
  <v type="int" >       86 </v>
  <v type="int" >       90 </v>
  <v type="int" >       91 </v>
  <v type="int" >       93 </v>
  <v type="int" >       13 </v>
  <v type="int" >       14 </v>
  <v type="int" >       15 </v>
  <v type="int" >       16 </v>
  <v type="int" >       19 </v>
  <v type="int" >       20 </v>
  <v type="int" >       23 </v>
  <v type="int" >       24 </v>
  <v type="int" >       26 </v>
  <v type="int" >       28 </v>
  <v type="int" >       30 </v>
  <v type="int" >       32 </v>
  <v type="int" >       47 </v>
  <v type="int" >       54 </v>
  <v type="int" >       61 </v>
  <v type="int" >       68 </v>
  <v type="int" >       75 </v>
  <v type="int" >       82 </v>
  <v type="int" >       89 </v>
  <v type="int" >       40 </v>
  <v type="int" >        4 </v>
  <v type="int" >        6 </v>
  <v type="int" >        7 </v>
  <v type="int" >        8 </v>
 </varray>
 <kpoints>
  <generation param="Gamma">
   <v type="int" name="divisions">       1        1        1 </v>
   <v name="usershift">      0.00000000       0.00000000       0.00000000 </v>
   <v name="genvec1">      1.00000000       0.00000000       0.00000000 </v>
   <v name="genvec2">      0.00000000       1.00000000       0.00000000 </v>
   <v name="genvec3">      0.00000000       0.00000000       1.00000000 </v>
   <v name="shift">      0.00000000       0.00000000       0.00000000 </v>
  </generation>
  <varray name="kpointlist" >
   <v>       0.00000000       0.00000000       0.00000000 </v>
  </varray>
  <varray name="weights" >
   <v>       1.00000000 </v>
  </varray>
 </kpoints>
 <parameters>
  <separator name="general" >
   <i type="string" name="SYSTEM">unknown system</i>
   <i type="logical" name="LCOMPAT"> F  </i>
  </separator>
  <separator name="electronic" >
   <i type="string" name="PREC">accura</i>
   <i name="ENMAX">    270.00000000</i>
   <i name="ENAUG">    454.73400000</i>
   <i name="EDIFF">      0.00000001</i>
   <i type="int" name="IALGO">    38</i>
   <i type="int" name="IWAVPR">    10</i>
   <i type="int" name="NBANDS">   178</i>
   <i name="NELECT">    256.00000000</i>
   <i type="int" name="TURBO">     0</i>
   <i type="int" name="IRESTART">     0</i>
   <i type="int" name="NREBOOT">     0</i>
   <i type="int" name="NMIN">     0</i>
   <i name="EREF">      0.00000000</i>
   <separator name="electronic smearing" >
    <i type="int" name="ISMEAR">     0</i>
    <i name="SIGMA">      0.01000000</i>
    <i name="KSPACING">      0.50000000</i>
    <i type="logical" name="KGAMMA"> T  </i>
   </separator>
   <separator name="electronic projectors" >
    <i type="logical" name="LREAL"> F  </i>
    <v name="ROPT">      0.00000000      0.00000000      0.00000000</v>
    <i type="int" name="LMAXPAW">  -100</i>
    <i type="int" name="LMAXMIX">     2</i>
    <i type="logical" name="NLSPLINE"> F  </i>
   </separator>
   <separator name="electronic startup" >
    <i type="int" name="ISTART">     0</i>
    <i type="int" name="ICHARG">     2</i>
    <i type="int" name="INIWAV">     1</i>
   </separator>
   <separator name="electronic spin" >
    <i type="int" name="ISPIN">     1</i>
    <i type="logical" name="LNONCOLLINEAR"> F  </i>
    <v name="MAGMOM">      1.00000000      1.00000000      1.00000000      1.00000000      1.00000000      1.00000000      1.00000000      1.00000000      1.00000000      1.00000000      1.00000000      1.00000000      1.00000000      1.00000000      1.00000000      1.00000000      1.00000000      1.00000000      1.00000000      1.00000000
      1.00000000      1.00000000      1.00000000      1.00000000      1.00000000      1.00000000      1.00000000      1.00000000      1.00000000      1.00000000      1.00000000      1.00000000      1.00000000      1.00000000      1.00000000      1.00000000      1.00000000      1.00000000      1.00000000      1.00000000
      1.00000000      1.00000000      1.00000000      1.00000000      1.00000000      1.00000000      1.00000000      1.00000000      1.00000000      1.00000000      1.00000000      1.00000000      1.00000000      1.00000000      1.00000000      1.00000000      1.00000000      1.00000000      1.00000000      1.00000000
      1.00000000      1.00000000      1.00000000      1.00000000      1.00000000      1.00000000      1.00000000      1.00000000      1.00000000      1.00000000      1.00000000      1.00000000      1.00000000      1.00000000      1.00000000      1.00000000      1.00000000      1.00000000      1.00000000      1.00000000
      1.00000000      1.00000000      1.00000000      1.00000000      1.00000000      1.00000000      1.00000000      1.00000000      1.00000000      1.00000000      1.00000000      1.00000000      1.00000000      1.00000000      1.00000000      1.00000000</v>
    <i name="NUPDOWN">     -1.00000000</i>
    <i type="logical" name="LSORBIT"> F  </i>
    <v name="SAXIS">      0.00000000      0.00000000      1.00000000</v>
    <i type="logical" name="LSPIRAL"> F  </i>
    <v name="QSPIRAL">      0.00000000      0.00000000      0.00000000</v>
    <i type="logical" name="LZEROZ"> F  </i>
   </separator>
   <separator name="electronic exchange-correlation" >
    <i type="logical" name="LASPH"> F  </i>
    <i type="logical" name="LMETAGGA"> F  </i>
   </separator>
   <separator name="electronic convergence" >
    <i type="int" name="NELM">    60</i>
    <i type="int" name="NELMDL">    -5</i>
    <i type="int" name="NELMIN">     2</i>
    <i name="ENINI">    270.00000000</i>
    <separator name="electronic convergence detail" >
     <i type="logical" name="LDIAG"> T  </i>
     <i type="logical" name="LSUBROT"> F  </i>
     <i name="WEIMIN">      0.00000000</i>
     <i name="EBREAK">      0.00000000</i>
     <i name="DEPER">      0.30000000</i>
     <i type="int" name="NRMM">     4</i>
     <i name="TIME">      0.40000000</i>
    </separator>
   </separator>
   <separator name="electronic mixer" >
    <i name="AMIX">      0.40000000</i>
    <i name="BMIX">      1.00000000</i>
    <i name="AMIN">      0.10000000</i>
    <i name="AMIX_MAG">      1.60000000</i>
    <i name="BMIX_MAG">      1.00000000</i>
    <separator name="electronic mixer details" >
     <i type="int" name="IMIX">     4</i>
     <i type="logical" name="MIXFIRST"> F  </i>
     <i type="int" name="MAXMIX">   -45</i>
     <i name="WC">    100.00000000</i>
     <i type="int" name="INIMIX">     1</i>
     <i type="int" name="MIXPRE">     1</i>
     <i type="int" name="MREMOVE">     5</i>
    </separator>
   </separator>
   <separator name="electronic dipolcorrection" >
    <i type="logical" name="LDIPOL"> F  </i>
    <i type="logical" name="LMONO"> F  </i>
    <i type="int" name="IDIPOL">     0</i>
    <i name="EPSILON">      1.00000000</i>
    <v name="DIPOL">   -100.00000000   -100.00000000   -100.00000000</v>
    <i name="EFIELD">      0.00000000</i>
   </separator>
  </separator>
  <separator name="grids" >
   <i type="int" name="NGX">    70</i>
   <i type="int" name="NGY">    70</i>
   <i type="int" name="NGZ">    70</i>
   <i type="int" name="NGXF">   140</i>
   <i type="int" name="NGYF">   140</i>
   <i type="int" name="NGZF">   140</i>
   <i type="logical" name="ADDGRID"> F  </i>
  </separator>
  <separator name="ionic" >
   <i type="int" name="NSW">     0</i>
   <i type="int" name="IBRION">    -1</i>
   <i type="int" name="MDALGO">     0</i>
   <i type="int" name="ISIF">     2</i>
   <i name="PSTRESS">      0.00000000</i>
   <i name="EDIFFG">      0.00000010</i>
   <i type="int" name="NFREE">     0</i>
   <i name="POTIM">      0.50000000</i>
   <i name="SMASS">     -3.00000000</i>
   <i name="SCALEE">      1.00000000</i>
  </separator>
  <separator name="ionic md" >
   <i name="TEBEG">      0.00010000</i>
   <i name="TEEND">      0.00010000</i>
   <i type="int" name="NBLOCK">     1</i>
   <i type="int" name="KBLOCK">     1</i>
   <i type="int" name="NPACO">   256</i>
   <i name="APACO">     16.00000000</i>
  </separator>
  <separator name="symmetry" >
   <i type="int" name="ISYM">     0</i>
   <i name="SYMPREC">      0.00001000</i>
  </separator>
  <separator name="dos" >
   <i type="int" name="LORBIT">     0</i>
   <v name="RWIGS">     -1.00000000     -1.00000000     -1.00000000</v>
   <i type="int" name="NEDOS">   301</i>
   <i name="EMIN">     10.00000000</i>
   <i name="EMAX">    -10.00000000</i>
   <i name="EFERMI">      0.00000000</i>
  </separator>
  <separator name="writing" >
   <i type="int" name="NWRITE">     2</i>
   <i type="logical" name="LWAVE"> F  </i>
   <i type="logical" name="LDOWNSAMPLE"> F  </i>
   <i type="logical" name="LCHARG"> F  </i>
   <i type="logical" name="LPARD"> F  </i>
   <i type="logical" name="LVTOT"> F  </i>
   <i type="logical" name="LVHAR"> F  </i>
   <i type="logical" name="LELF"> F  </i>
   <i type="logical" name="LOPTICS"> F  </i>
   <v name="STM">      0.00000000      0.00000000      0.00000000      0.00000000      0.00000000      0.00000000      0.00000000</v>
  </separator>
  <separator name="performance" >
   <i type="int" name="NPAR">     2</i>
   <i type="int" name="NSIM">     4</i>
   <i type="int" name="NBLK">    -1</i>
   <i type="logical" name="LPLANE"> T  </i>
   <i type="logical" name="LSCALAPACK"> T  </i>
   <i type="logical" name="LSCAAWARE"> F  </i>
   <i type="logical" name="LSCALU"> F  </i>
   <i type="logical" name="LASYNC"> F  </i>
   <i type="logical" name="LORBITALREAL"> F  </i>
  </separator>
  <separator name="miscellaneous" >
   <i type="int" name="IDIOT">     3</i>
   <i type="int" name="ISPECIAL">     0</i>
   <i type="logical" name="LMUSIC"> F  </i>
   <v name="POMASS">    118.71000000     28.08500000     24.30500000</v>
   <v name="DARWINR">      0.00000000      0.00000000      0.00000000</v>
   <v name="DARWINV">      1.00000000      1.00000000      1.00000000</v>
   <i type="logical" name="LCORR"> T  </i>
  </separator>
  <i type="logical" name="GGA_COMPAT"> T  </i>
  <i type="logical" name="LBERRY"> F  </i>
  <i type="int" name="ICORELEVEL">     0</i>
  <i type="logical" name="LDAU"> F  </i>
  <i type="int" name="I_CONSTRAINED_M">     0</i>
  <separator name="electronic exchange-correlation" >
   <i type="string" name="GGA">--</i>
   <i type="int" name="VOSKOWN">     0</i>
   <i type="logical" name="LHFCALC"> F  </i>
   <i type="string" name="PRECFOCK"></i>
   <i type="logical" name="LSYMGRAD"> F  </i>
   <i type="logical" name="LHFONE"> F  </i>
   <i type="logical" name="LRHFCALC"> F  </i>
   <i type="logical" name="LTHOMAS"> F  </i>
   <i type="logical" name="LMODELHF"> F  </i>
   <i name="ENCUT4O">     -1.00000000</i>
   <i type="int" name="EXXOEP">     0</i>
   <i type="int" name="FOURORBIT">     0</i>
   <i name="AEXX">      0.00000000</i>
   <i name="HFALPHA">      0.00000000</i>
   <i name="MCALPHA">      0.00000000</i>
   <i name="ALDAX">      1.00000000</i>
   <i name="AGGAX">      1.00000000</i>
   <i name="ALDAC">      1.00000000</i>
   <i name="AGGAC">      1.00000000</i>
   <i type="int" name="NKREDX">     1</i>
   <i type="int" name="NKREDY">     1</i>
   <i type="int" name="NKREDZ">     1</i>
   <i type="logical" name="SHIFTRED"> F  </i>
   <i type="logical" name="ODDONLY"> F  </i>
   <i type="logical" name="EVENONLY"> F  </i>
   <i type="int" name="LMAXFOCK">     0</i>
   <i type="int" name="NMAXFOCKAE">     0</i>
   <i type="logical" name="LFOCKAEDFT"> F  </i>
   <i name="HFSCREEN">      0.00000000</i>
   <i name="HFSCREENC">      0.00000000</i>
   <i type="int" name="NBANDSGWLOW">     0</i>
  </separator>
  <separator name="vdW DFT" >
   <i type="logical" name="LUSE_VDW"> F  </i>
   <i name="Zab_VDW">     -0.84910000</i>
   <i name="PARAM1">      0.12340000</i>
   <i name="PARAM2">      1.00000000</i>
   <i name="PARAM3">      0.00000000</i>
  </separator>
  <separator name="model GW" >
   <i type="int" name="MODEL_GW">     0</i>
   <i name="MODEL_EPS0">     12.94626887</i>
   <i name="MODEL_ALPHA">      1.00000000</i>
  </separator>
  <separator name="linear response parameters" >
   <i type="logical" name="LEPSILON"> F  </i>
   <i type="logical" name="LRPA"> F  </i>
   <i type="logical" name="LNABLA"> F  </i>
   <i type="logical" name="LVEL"> F  </i>
   <i type="int" name="KINTER">     0</i>
   <i name="CSHIFT">      0.10000000</i>
   <i name="OMEGAMAX">     -1.00000000</i>
   <i name="DEG_THRESHOLD">      0.00200000</i>
   <i name="RTIME">     -0.10000000</i>
   <i name="WPLASMAI">      0.00000000</i>
   <v name="DFIELD">      0.00000000      0.00000000      0.00000000</v>
   <v name="WPLASMA">      0.00000000      0.00000000      0.00000000      0.00000000      0.00000000      0.00000000      0.00000000      0.00000000      0.00000000</v>
  </separator>
  <separator name="orbital magnetization" >
   <i type="logical" name="NUCIND"> F  </i>
   <v name="MAGPOS">      0.00000000      0.00000000      0.00000000</v>
   <i type="logical" name="LNICSALL"> T  </i>
   <i type="logical" name="ORBITALMAG"> F  </i>
   <i type="logical" name="LMAGBLOCH"> F  </i>
   <i type="logical" name="LCHIMAG"> F  </i>
   <i type="logical" name="LGAUGE"> T  </i>
   <i type="int" name="MAGATOM">     0</i>
   <v name="MAGDIPOL">      0.00000000      0.00000000      0.00000000</v>
   <v name="AVECCONST">      0.00000000      0.00000000      0.00000000</v>
  </separator>
  <separator name="response functions" >
   <i type="logical" name="LADDER"> F  </i>
   <i type="logical" name="LRPAFORCE"> F  </i>
   <i type="logical" name="LFXC"> F  </i>
   <i type="logical" name="LHARTREE"> T  </i>
   <i type="int" name="IBSE">     0</i>
   <v type="int" name="KPOINT">    -1     0     0     0</v>
   <i type="logical" name="LTCTE"> F  </i>
   <i type="logical" name="LTETE"> F  </i>
   <i type="logical" name="LTRIPLET"> F  </i>
   <i type="logical" name="LFXCEPS"> F  </i>
   <i type="logical" name="LFXHEG"> F  </i>
   <i type="int" name="NATURALO">     2</i>
   <i type="logical" name="L2ORDER"> F  </i>
   <i type="logical" name="LMP2LT"> F  </i>
   <i type="logical" name="LUSEW"> F  </i>
   <i name="ENCUTGW">     -2.00000000</i>
   <i name="ENCUTGWSOFT">     -2.00000000</i>
   <i name="ENCUTLF">     -1.00000000</i>
   <i type="int" name="LMAXMP2">    -1</i>
   <i name="SCISSOR">      0.00000000</i>
   <i type="int" name="NOMEGA">     0</i>
   <i type="int" name="NOMEGAR">     0</i>
   <i type="int" name="NBANDSGW">    -1</i>
   <i type="int" name="NBANDSO">    -1</i>
   <i type="int" name="NBANDSV">    -1</i>
   <i type="int" name="NELM">     1</i>
   <i type="int" name="NELMHF">     1</i>
   <i type="int" name="DIM">     3</i>
   <i type="int" name="ANTIRES">     0</i>
   <i name="OMEGAMAX">    -30.00000000</i>
   <i name="OMEGAMIN">    -30.00000000</i>
   <i name="OMEGATL">   -200.00000000</i>
   <i type="int" name="OMEGAGRID">   140</i>
   <i name="CSHIFT">     -0.10000000</i>
   <i type="logical" name="SELFENERGY"> F  </i>
   <i type="logical" name="LSPECTRAL"> F  </i>
   <i type="logical" name="LSPECTRALGW"> F  </i>
   <i type="logical" name="LSINGLES"> F  </i>
   <i type="logical" name="LFERMIGW"> F  </i>
   <i type="logical" name="ODDONLYGW"> F  </i>
   <i type="logical" name="EVENONLYGW"> F  </i>
   <i type="int" name="NKREDLFX">     1</i>
   <i type="int" name="NKREDLFY">     1</i>
   <i type="int" name="NKREDLFZ">     1</i>
   <i type="int" name="MAXMEM">  2800</i>
   <i type="int" name="TELESCOPE">     0</i>
   <i type="int" name="TAUPAR">     1</i>
   <i type="int" name="OMEGAPAR">    -1</i>
   <i name="LAMBDA">      1.00000000</i>
  </separator>
  <separator name="External order field" >
   <i name="OFIELD_KAPPA">      0.00000000</i>
   <v name="OFIELD_K">      0.00000000      0.00000000      0.00000000</v>
   <i name="OFIELD_Q6_NEAR">      0.00000000</i>
   <i name="OFIELD_Q6_FAR">      0.00000000</i>
   <i name="OFIELD_A">      0.00000000</i>
  </separator>
 </parameters>
 <atominfo>
  <atoms>      96 </atoms>
  <types>       3 </types>
  <array name="atoms" >
   <dimension dim="1">ion</dimension>
   <field type="string">element</field>
   <field type="int">atomtype</field>
   <set>
    <rc><c>Sn</c><c>   1</c></rc>
    <rc><c>Si</c><c>   2</c></rc>
    <rc><c>Si</c><c>   2</c></rc>
    <rc><c>Si</c><c>   2</c></rc>
    <rc><c>Si</c><c>   2</c></rc>
    <rc><c>Si</c><c>   2</c></rc>
    <rc><c>Si</c><c>   2</c></rc>
    <rc><c>Si</c><c>   2</c></rc>
    <rc><c>Si</c><c>   2</c></rc>
    <rc><c>Si</c><c>   2</c></rc>
    <rc><c>Si</c><c>   2</c></rc>
    <rc><c>Si</c><c>   2</c></rc>
    <rc><c>Si</c><c>   2</c></rc>
    <rc><c>Si</c><c>   2</c></rc>
    <rc><c>Si</c><c>   2</c></rc>
    <rc><c>Si</c><c>   2</c></rc>
    <rc><c>Si</c><c>   2</c></rc>
    <rc><c>Si</c><c>   2</c></rc>
    <rc><c>Si</c><c>   2</c></rc>
    <rc><c>Si</c><c>   2</c></rc>
    <rc><c>Si</c><c>   2</c></rc>
    <rc><c>Si</c><c>   2</c></rc>
    <rc><c>Si</c><c>   2</c></rc>
    <rc><c>Si</c><c>   2</c></rc>
    <rc><c>Si</c><c>   2</c></rc>
    <rc><c>Si</c><c>   2</c></rc>
    <rc><c>Si</c><c>   2</c></rc>
    <rc><c>Si</c><c>   2</c></rc>
    <rc><c>Si</c><c>   2</c></rc>
    <rc><c>Si</c><c>   2</c></rc>
    <rc><c>Si</c><c>   2</c></rc>
    <rc><c>Si</c><c>   2</c></rc>
    <rc><c>Mg</c><c>   3</c></rc>
    <rc><c>Mg</c><c>   3</c></rc>
    <rc><c>Mg</c><c>   3</c></rc>
    <rc><c>Mg</c><c>   3</c></rc>
    <rc><c>Mg</c><c>   3</c></rc>
    <rc><c>Mg</c><c>   3</c></rc>
    <rc><c>Mg</c><c>   3</c></rc>
    <rc><c>Mg</c><c>   3</c></rc>
    <rc><c>Mg</c><c>   3</c></rc>
    <rc><c>Mg</c><c>   3</c></rc>
    <rc><c>Mg</c><c>   3</c></rc>
    <rc><c>Mg</c><c>   3</c></rc>
    <rc><c>Mg</c><c>   3</c></rc>
    <rc><c>Mg</c><c>   3</c></rc>
    <rc><c>Mg</c><c>   3</c></rc>
    <rc><c>Mg</c><c>   3</c></rc>
    <rc><c>Mg</c><c>   3</c></rc>
    <rc><c>Mg</c><c>   3</c></rc>
    <rc><c>Mg</c><c>   3</c></rc>
    <rc><c>Mg</c><c>   3</c></rc>
    <rc><c>Mg</c><c>   3</c></rc>
    <rc><c>Mg</c><c>   3</c></rc>
    <rc><c>Mg</c><c>   3</c></rc>
    <rc><c>Mg</c><c>   3</c></rc>
    <rc><c>Mg</c><c>   3</c></rc>
    <rc><c>Mg</c><c>   3</c></rc>
    <rc><c>Mg</c><c>   3</c></rc>
    <rc><c>Mg</c><c>   3</c></rc>
    <rc><c>Mg</c><c>   3</c></rc>
    <rc><c>Mg</c><c>   3</c></rc>
    <rc><c>Mg</c><c>   3</c></rc>
    <rc><c>Mg</c><c>   3</c></rc>
    <rc><c>Mg</c><c>   3</c></rc>
    <rc><c>Mg</c><c>   3</c></rc>
    <rc><c>Mg</c><c>   3</c></rc>
    <rc><c>Mg</c><c>   3</c></rc>
    <rc><c>Mg</c><c>   3</c></rc>
    <rc><c>Mg</c><c>   3</c></rc>
    <rc><c>Mg</c><c>   3</c></rc>
    <rc><c>Mg</c><c>   3</c></rc>
    <rc><c>Mg</c><c>   3</c></rc>
    <rc><c>Mg</c><c>   3</c></rc>
    <rc><c>Mg</c><c>   3</c></rc>
    <rc><c>Mg</c><c>   3</c></rc>
    <rc><c>Mg</c><c>   3</c></rc>
    <rc><c>Mg</c><c>   3</c></rc>
    <rc><c>Mg</c><c>   3</c></rc>
    <rc><c>Mg</c><c>   3</c></rc>
    <rc><c>Mg</c><c>   3</c></rc>
    <rc><c>Mg</c><c>   3</c></rc>
    <rc><c>Mg</c><c>   3</c></rc>
    <rc><c>Mg</c><c>   3</c></rc>
    <rc><c>Mg</c><c>   3</c></rc>
    <rc><c>Mg</c><c>   3</c></rc>
    <rc><c>Mg</c><c>   3</c></rc>
    <rc><c>Mg</c><c>   3</c></rc>
    <rc><c>Mg</c><c>   3</c></rc>
    <rc><c>Mg</c><c>   3</c></rc>
    <rc><c>Mg</c><c>   3</c></rc>
    <rc><c>Mg</c><c>   3</c></rc>
    <rc><c>Mg</c><c>   3</c></rc>
    <rc><c>Mg</c><c>   3</c></rc>
    <rc><c>Mg</c><c>   3</c></rc>
    <rc><c>Mg</c><c>   3</c></rc>
   </set>
  </array>
  <array name="atomtypes" >
   <dimension dim="1">type</dimension>
   <field type="int">atomspertype</field>
   <field type="string">element</field>
   <field>mass</field>
   <field>valence</field>
   <field type="string">pseudopotential</field>
   <set>
    <rc><c>   1</c><c>Sn</c><c>    118.71000000</c><c>      4.00000000</c><c>  PAW_PBE Sn 08Apr2002                  </c></rc>
    <rc><c>  31</c><c>Si</c><c>     28.08500000</c><c>      4.00000000</c><c>  PAW_PBE Si 05Jan2001                  </c></rc>
    <rc><c>  64</c><c>Mg</c><c>     24.30500000</c><c>      2.00000000</c><c>  PAW_PBE Mg 13Apr2007                  </c></rc>
   </set>
  </array>
 </atominfo>
 <structure name="initialpos" >
  <crystal>
   <varray name="basis" >
    <v>      12.74739769       0.00000000       0.00000000 </v>
    <v>       0.00000000      12.74739769       0.00000000 </v>
    <v>       0.00000000       0.00000000      12.74739769 </v>
   </varray>
   <i name="volume">   2071.40301882 </i>
   <varray name="rec_basis" >
    <v>       0.07844738       0.00000000       0.00000000 </v>
    <v>       0.00000000       0.07844738       0.00000000 </v>
    <v>       0.00000000       0.00000000       0.07844738 </v>
   </varray>
  </crystal>
  <varray name="positions" >
   <v>       0.00000000       0.00000000       0.00000000 </v>
   <v>       0.50000000       0.00000000       0.00000000 </v>
   <v>       0.00000000       0.50000000       0.00000000 </v>
   <v>       0.50000000       0.50000000       0.00000000 </v>
   <v>       0.00000000       0.00000000       0.50000000 </v>
   <v>       0.50000000       0.00000000       0.50000000 </v>
   <v>       0.00000000       0.50000000       0.50000000 </v>
   <v>       0.50000000       0.50000000       0.50000000 </v>
   <v>       0.25140293       0.25140293       0.00000000 </v>
   <v>       0.74859707       0.25140293       0.00000000 </v>
   <v>       0.25140293       0.74859707       0.00000000 </v>
   <v>       0.74859707       0.74859707       0.00000000 </v>
   <v>       0.25012668       0.25012668       0.50000000 </v>
   <v>       0.74987332       0.25012668       0.50000000 </v>
   <v>       0.25012668       0.74987332       0.50000000 </v>
   <v>       0.74987332       0.74987332       0.50000000 </v>
   <v>       0.25140293       0.00000000       0.25140293 </v>
   <v>       0.74859707       0.00000000       0.25140293 </v>
   <v>       0.25012668       0.50000000       0.25012668 </v>
   <v>       0.74987332       0.50000000       0.25012668 </v>
   <v>       0.25140293       0.00000000       0.74859707 </v>
   <v>       0.74859707       0.00000000       0.74859707 </v>
   <v>       0.25012668       0.50000000       0.74987332 </v>
   <v>       0.74987332       0.50000000       0.74987332 </v>
   <v>       0.00000000       0.25140293       0.25140293 </v>
   <v>       0.50000000       0.25012668       0.25012668 </v>
   <v>       0.00000000       0.74859707       0.25140293 </v>
   <v>       0.50000000       0.74987332       0.25012668 </v>
   <v>       0.00000000       0.25140293       0.74859707 </v>
   <v>       0.50000000       0.25012668       0.74987332 </v>
   <v>       0.00000000       0.74859707       0.74859707 </v>
   <v>       0.50000000       0.74987332       0.74987332 </v>
   <v>       0.12960836       0.12960836       0.12960836 </v>
   <v>       0.62421357       0.12507203       0.12507203 </v>
   <v>       0.12507203       0.62421357       0.12507203 </v>
   <v>       0.62455273       0.62455273       0.12469540 </v>
   <v>       0.12507203       0.12507203       0.62421357 </v>
   <v>       0.62455273       0.12469540       0.62455273 </v>
   <v>       0.12469540       0.62455273       0.62455273 </v>
   <v>       0.62429792       0.62508239       0.62508239 </v>
   <v>       0.37578643       0.12507203       0.12507203 </v>
   <v>       0.87039164       0.12960836       0.12960836 </v>
   <v>       0.37544727       0.62455273       0.12469540 </v>
   <v>       0.87492797       0.62421357       0.12507203 </v>
   <v>       0.37544727       0.12469540       0.62455273 </v>
   <v>       0.87492797       0.12507203       0.62421357 </v>
   <v>       0.37491761       0.62508239       0.62508239 </v>
   <v>       0.87530460       0.62455273       0.62455273 </v>
   <v>       0.12507203       0.37578643       0.12507203 </v>
   <v>       0.62455273       0.37544727       0.12469540 </v>
   <v>       0.12960836       0.87039164       0.12960836 </v>
   <v>       0.62421357       0.87492797       0.12507203 </v>
   <v>       0.12469540       0.37544727       0.62455273 </v>
   <v>       0.62508239       0.37491761       0.62508239 </v>
   <v>       0.12507203       0.87492797       0.62421357 </v>
   <v>       0.62455273       0.87530460       0.62455273 </v>
   <v>       0.37544727       0.37544727       0.12469540 </v>
   <v>       0.87492797       0.37578643       0.12507203 </v>
   <v>       0.37578643       0.87492797       0.12507203 </v>
   <v>       0.87039164       0.87039164       0.12960836 </v>
   <v>       0.37491761       0.37491761       0.62508239 </v>
   <v>       0.87530460       0.37544727       0.62455273 </v>
   <v>       0.37544727       0.87530460       0.62455273 </v>
   <v>       0.87492797       0.87492797       0.62421357 </v>
   <v>       0.12507203       0.12507203       0.37578643 </v>
   <v>       0.62455273       0.12469540       0.37544727 </v>
   <v>       0.12469540       0.62455273       0.37544727 </v>
   <v>       0.62508239       0.62508239       0.37491761 </v>
   <v>       0.12960836       0.12960836       0.87039164 </v>
   <v>       0.62421357       0.12507203       0.87492797 </v>
   <v>       0.12507203       0.62421357       0.87492797 </v>
   <v>       0.62455273       0.62455273       0.87530460 </v>
   <v>       0.37544727       0.12469540       0.37544727 </v>
   <v>       0.87492797       0.12507203       0.37578643 </v>
   <v>       0.37491761       0.62508239       0.37491761 </v>
   <v>       0.87530460       0.62455273       0.37544727 </v>
   <v>       0.37578643       0.12507203       0.87492797 </v>
   <v>       0.87039164       0.12960836       0.87039164 </v>
   <v>       0.37544727       0.62455273       0.87530460 </v>
   <v>       0.87492797       0.62421357       0.87492797 </v>
   <v>       0.12469540       0.37544727       0.37544727 </v>
   <v>       0.62508239       0.37491761       0.37491761 </v>
   <v>       0.12507203       0.87492797       0.37578643 </v>
   <v>       0.62455273       0.87530460       0.37544727 </v>
   <v>       0.12507203       0.37578643       0.87492797 </v>
   <v>       0.62455273       0.37544727       0.87530460 </v>
   <v>       0.12960836       0.87039164       0.87039164 </v>
   <v>       0.62421357       0.87492797       0.87492797 </v>
   <v>       0.37491761       0.37491761       0.37491761 </v>
   <v>       0.87530460       0.37544727       0.37544727 </v>
   <v>       0.37544727       0.87530460       0.37544727 </v>
   <v>       0.87492797       0.87492797       0.37578643 </v>
   <v>       0.37544727       0.37544727       0.87530460 </v>
   <v>       0.87492797       0.37578643       0.87492797 </v>
   <v>       0.37578643       0.87492797       0.87492797 </v>
   <v>       0.87039164       0.87039164       0.87039164 </v>
  </varray>
 </structure>
 <calculation>
  <scstep>
   <time name="dav">   13.32   13.37</time>
   <time name="total">   14.12   14.18</time>
   <energy>
    <i name="alphaZ">    214.09658884 </i>
    <i name="ewald">  -5218.82842680 </i>
    <i name="hartreedc">   -333.03099367 </i>
    <i name="XCdc">  -3539.85008973 </i>
    <i name="pawpsdc">   7100.88161447 </i>
    <i name="pawaedc">  -3112.42095010 </i>
    <i name="eentropy">     -0.00000000 </i>
    <i name="bandstr">    447.64318539 </i>
    <i name="atom">   4763.39200965 </i>
    <i name="e_fr_energy">    321.88293804 </i>
    <i name="e_wo_entrp">    321.88293804 </i>
    <i name="e_0_energy">    321.88293804 </i>
   </energy>
  </scstep>
  <scstep>
   <time name="dav">   15.43   15.46</time>
   <time name="total">   15.43   15.46</time>
   <energy>
    <i name="e_fr_energy">   -253.37994022 </i>
    <i name="e_wo_entrp">   -253.37994022 </i>
    <i name="e_0_energy">   -253.37994022 </i>
   </energy>
  </scstep>
  <scstep>
   <time name="dav">   15.49   15.52</time>
   <time name="total">   15.49   15.52</time>
   <energy>
    <i name="e_fr_energy">   -296.45475877 </i>
    <i name="e_wo_entrp">   -296.45475877 </i>
    <i name="e_0_energy">   -296.45475877 </i>
   </energy>
  </scstep>
  <scstep>
   <time name="dav">   15.25   15.28</time>
   <time name="total">   15.25   15.28</time>
   <energy>
    <i name="e_fr_energy">   -297.34076721 </i>
    <i name="e_wo_entrp">   -297.34076721 </i>
    <i name="e_0_energy">   -297.34076721 </i>
   </energy>
  </scstep>
  <scstep>
   <time name="dav">   15.48   15.50</time>
   <time name="total">   15.88   15.91</time>
   <energy>
    <i name="e_fr_energy">   -297.36459059 </i>
    <i name="e_wo_entrp">   -297.36459059 </i>
    <i name="e_0_energy">   -297.36459059 </i>
   </energy>
  </scstep>
  <scstep>
   <time name="dav">   13.35   13.38</time>
   <time name="total">   14.55   14.58</time>
   <energy>
    <i name="e_fr_energy">   -280.23986247 </i>
    <i name="e_wo_entrp">   -280.23986247 </i>
    <i name="e_0_energy">   -280.23986247 </i>
   </energy>
  </scstep>
  <scstep>
   <time name="dav">   14.19   14.22</time>
   <time name="total">   15.39   15.42</time>
   <energy>
    <i name="e_fr_energy">   -277.76424579 </i>
    <i name="e_wo_entrp">   -277.76424574 </i>
    <i name="e_0_energy">   -277.76424577 </i>
   </energy>
  </scstep>
  <scstep>
   <time name="dav">   14.39   14.41</time>
   <time name="total">   15.59   15.62</time>
   <energy>
    <i name="e_fr_energy">   -277.76837562 </i>
    <i name="e_wo_entrp">   -277.76837562 </i>
    <i name="e_0_energy">   -277.76837562 </i>
   </energy>
  </scstep>
  <scstep>
   <time name="dav">   14.90   14.93</time>
   <time name="total">   16.10   16.13</time>
   <energy>
    <i name="e_fr_energy">   -277.76501701 </i>
    <i name="e_wo_entrp">   -277.76501701 </i>
    <i name="e_0_energy">   -277.76501701 </i>
   </energy>
  </scstep>
  <scstep>
   <time name="dav">   14.68   14.70</time>
   <time name="total">   15.88   15.91</time>
   <energy>
    <i name="e_fr_energy">   -277.76824122 </i>
    <i name="e_wo_entrp">   -277.76824122 </i>
    <i name="e_0_energy">   -277.76824122 </i>
   </energy>
  </scstep>
  <scstep>
   <time name="dav">   14.69   14.72</time>
   <time name="total">   15.88   15.91</time>
   <energy>
    <i name="e_fr_energy">   -277.76867856 </i>
    <i name="e_wo_entrp">   -277.76867856 </i>
    <i name="e_0_energy">   -277.76867856 </i>
   </energy>
  </scstep>
  <scstep>
   <time name="dav">   15.82   15.84</time>
   <time name="total">   17.00   17.03</time>
   <energy>
    <i name="e_fr_energy">   -277.76858090 </i>
    <i name="e_wo_entrp">   -277.76858090 </i>
    <i name="e_0_energy">   -277.76858090 </i>
   </energy>
  </scstep>
  <scstep>
   <time name="dav">   15.10   15.13</time>
   <time name="total">   16.29   16.32</time>
   <energy>
    <i name="e_fr_energy">   -277.76855427 </i>
    <i name="e_wo_entrp">   -277.76855427 </i>
    <i name="e_0_energy">   -277.76855427 </i>
   </energy>
  </scstep>
  <scstep>
   <time name="dav">   14.32   14.34</time>
   <time name="total">   15.50   15.53</time>
   <energy>
    <i name="e_fr_energy">   -277.76856043 </i>
    <i name="e_wo_entrp">   -277.76856043 </i>
    <i name="e_0_energy">   -277.76856043 </i>
   </energy>
  </scstep>
  <scstep>
   <time name="dav">   14.31   14.34</time>
   <time name="total">   15.50   15.53</time>
   <energy>
    <i name="e_fr_energy">   -277.76856011 </i>
    <i name="e_wo_entrp">   -277.76856011 </i>
    <i name="e_0_energy">   -277.76856011 </i>
   </energy>
  </scstep>
  <scstep>
   <time name="dav">   14.76   14.79</time>
   <time name="total">   15.95   15.98</time>
   <energy>
    <i name="e_fr_energy">   -277.76856033 </i>
    <i name="e_wo_entrp">   -277.76856033 </i>
    <i name="e_0_energy">   -277.76856033 </i>
   </energy>
  </scstep>
  <scstep>
   <time name="dav">   14.31   14.34</time>
   <time name="total">   15.50   15.53</time>
   <energy>
    <i name="e_fr_energy">   -277.76856052 </i>
    <i name="e_wo_entrp">   -277.76856052 </i>
    <i name="e_0_energy">   -277.76856052 </i>
   </energy>
  </scstep>
  <scstep>
   <time name="dav">   14.09   14.11</time>
   <time name="total">   15.28   15.31</time>
   <energy>
    <i name="e_fr_energy">   -277.76856050 </i>
    <i name="e_wo_entrp">   -277.76856050 </i>
    <i name="e_0_energy">   -277.76856050 </i>
   </energy>
  </scstep>
  <scstep>
   <time name="dav">   10.47   10.49</time>
   <time name="total">   11.66   11.68</time>
   <energy>
    <i name="e_fr_energy">   -277.76856054 </i>
    <i name="e_wo_entrp">   -277.76856054 </i>
    <i name="e_0_energy">   -277.76856054 </i>
   </energy>
  </scstep>
  <scstep>
   <time name="dav">    9.82    9.84</time>
   <time name="total">   11.01   11.03</time>
   <energy>
    <i name="e_fr_energy">   -277.76856056 </i>
    <i name="e_wo_entrp">   -277.76856056 </i>
    <i name="e_0_energy">   -277.76856056 </i>
   </energy>
  </scstep>
  <scstep>
   <time name="dav">    9.58    9.60</time>
   <time name="total">   10.78   10.80</time>
   <energy>
    <i name="e_fr_energy">   -277.76856054 </i>
    <i name="e_wo_entrp">   -277.76856054 </i>
    <i name="e_0_energy">   -277.76856054 </i>
   </energy>
  </scstep>
  <scstep>
   <time name="dav">    9.81    9.83</time>
   <time name="total">   10.59   10.61</time>
   <energy>
    <i name="alphaZ">    214.09658884 </i>
    <i name="ewald">  -5218.82842680 </i>
    <i name="hartreedc">   -486.12794146 </i>
    <i name="XCdc">  -3511.70758562 </i>
    <i name="pawpsdc">  17714.26583588 </i>
    <i name="pawaedc"> -13730.58763380 </i>
    <i name="eentropy">     -0.00000000 </i>
    <i name="bandstr">    -22.27140723 </i>
    <i name="atom">   4763.39200965 </i>
    <i name="e_fr_energy">   -277.76856054 </i>
    <i name="e_wo_entrp">   -277.76856054 </i>
    <i name="e_0_energy">   -277.76856054 </i>
   </energy>
  </scstep>
  <structure>
   <crystal>
    <varray name="basis" >
     <v>      12.74739769       0.00000000       0.00000000 </v>
     <v>       0.00000000      12.74739769       0.00000000 </v>
     <v>       0.00000000       0.00000000      12.74739769 </v>
    </varray>
    <i name="volume">   2071.40301882 </i>
    <varray name="rec_basis" >
     <v>       0.07844738       0.00000000       0.00000000 </v>
     <v>       0.00000000       0.07844738       0.00000000 </v>
     <v>       0.00000000       0.00000000       0.07844738 </v>
    </varray>
   </crystal>
   <varray name="positions" >
    <v>       0.00000000       0.00000000       0.00000000 </v>
    <v>       0.50000000       0.00000000       0.00000000 </v>
    <v>       0.00000000       0.50000000       0.00000000 </v>
    <v>       0.50000000       0.50000000       0.00000000 </v>
    <v>       0.00000000       0.00000000       0.50000000 </v>
    <v>       0.50000000       0.00000000       0.50000000 </v>
    <v>       0.00000000       0.50000000       0.50000000 </v>
    <v>       0.50000000       0.50000000       0.50000000 </v>
    <v>       0.25140293       0.25140293       0.00000000 </v>
    <v>       0.74859707       0.25140293       0.00000000 </v>
    <v>       0.25140293       0.74859707       0.00000000 </v>
    <v>       0.74859707       0.74859707       0.00000000 </v>
    <v>       0.25012668       0.25012668       0.50000000 </v>
    <v>       0.74987332       0.25012668       0.50000000 </v>
    <v>       0.25012668       0.74987332       0.50000000 </v>
    <v>       0.74987332       0.74987332       0.50000000 </v>
    <v>       0.25140293       0.00000000       0.25140293 </v>
    <v>       0.74859707       0.00000000       0.25140293 </v>
    <v>       0.25012668       0.50000000       0.25012668 </v>
    <v>       0.74987332       0.50000000       0.25012668 </v>
    <v>       0.25140293       0.00000000       0.74859707 </v>
    <v>       0.74859707       0.00000000       0.74859707 </v>
    <v>       0.25012668       0.50000000       0.74987332 </v>
    <v>       0.74987332       0.50000000       0.74987332 </v>
    <v>       0.00000000       0.25140293       0.25140293 </v>
    <v>       0.50000000       0.25012668       0.25012668 </v>
    <v>       0.00000000       0.74859707       0.25140293 </v>
    <v>       0.50000000       0.74987332       0.25012668 </v>
    <v>       0.00000000       0.25140293       0.74859707 </v>
    <v>       0.50000000       0.25012668       0.74987332 </v>
    <v>       0.00000000       0.74859707       0.74859707 </v>
    <v>       0.50000000       0.74987332       0.74987332 </v>
    <v>       0.12960836       0.12960836       0.12960836 </v>
    <v>       0.62421357       0.12507203       0.12507203 </v>
    <v>       0.12507203       0.62421357       0.12507203 </v>
    <v>       0.62455273       0.62455273       0.12469540 </v>
    <v>       0.12507203       0.12507203       0.62421357 </v>
    <v>       0.62455273       0.12469540       0.62455273 </v>
    <v>       0.12469540       0.62455273       0.62455273 </v>
    <v>       0.62429792       0.62508239       0.62508239 </v>
    <v>       0.37578643       0.12507203       0.12507203 </v>
    <v>       0.87039164       0.12960836       0.12960836 </v>
    <v>       0.37544727       0.62455273       0.12469540 </v>
    <v>       0.87492797       0.62421357       0.12507203 </v>
    <v>       0.37544727       0.12469540       0.62455273 </v>
    <v>       0.87492797       0.12507203       0.62421357 </v>
    <v>       0.37491761       0.62508239       0.62508239 </v>
    <v>       0.87530460       0.62455273       0.62455273 </v>
    <v>       0.12507203       0.37578643       0.12507203 </v>
    <v>       0.62455273       0.37544727       0.12469540 </v>
    <v>       0.12960836       0.87039164       0.12960836 </v>
    <v>       0.62421357       0.87492797       0.12507203 </v>
    <v>       0.12469540       0.37544727       0.62455273 </v>
    <v>       0.62508239       0.37491761       0.62508239 </v>
    <v>       0.12507203       0.87492797       0.62421357 </v>
    <v>       0.62455273       0.87530460       0.62455273 </v>
    <v>       0.37544727       0.37544727       0.12469540 </v>
    <v>       0.87492797       0.37578643       0.12507203 </v>
    <v>       0.37578643       0.87492797       0.12507203 </v>
    <v>       0.87039164       0.87039164       0.12960836 </v>
    <v>       0.37491761       0.37491761       0.62508239 </v>
    <v>       0.87530460       0.37544727       0.62455273 </v>
    <v>       0.37544727       0.87530460       0.62455273 </v>
    <v>       0.87492797       0.87492797       0.62421357 </v>
    <v>       0.12507203       0.12507203       0.37578643 </v>
    <v>       0.62455273       0.12469540       0.37544727 </v>
    <v>       0.12469540       0.62455273       0.37544727 </v>
    <v>       0.62508239       0.62508239       0.37491761 </v>
    <v>       0.12960836       0.12960836       0.87039164 </v>
    <v>       0.62421357       0.12507203       0.87492797 </v>
    <v>       0.12507203       0.62421357       0.87492797 </v>
    <v>       0.62455273       0.62455273       0.87530460 </v>
    <v>       0.37544727       0.12469540       0.37544727 </v>
    <v>       0.87492797       0.12507203       0.37578643 </v>
    <v>       0.37491761       0.62508239       0.37491761 </v>
    <v>       0.87530460       0.62455273       0.37544727 </v>
    <v>       0.37578643       0.12507203       0.87492797 </v>
    <v>       0.87039164       0.12960836       0.87039164 </v>
    <v>       0.37544727       0.62455273       0.87530460 </v>
    <v>       0.87492797       0.62421357       0.87492797 </v>
    <v>       0.12469540       0.37544727       0.37544727 </v>
    <v>       0.62508239       0.37491761       0.37491761 </v>
    <v>       0.12507203       0.87492797       0.37578643 </v>
    <v>       0.62455273       0.87530460       0.37544727 </v>
    <v>       0.12507203       0.37578643       0.87492797 </v>
    <v>       0.62455273       0.37544727       0.87530460 </v>
    <v>       0.12960836       0.87039164       0.87039164 </v>
    <v>       0.62421357       0.87492797       0.87492797 </v>
    <v>       0.37491761       0.37491761       0.37491761 </v>
    <v>       0.87530460       0.37544727       0.37544727 </v>
    <v>       0.37544727       0.87530460       0.37544727 </v>
    <v>       0.87492797       0.87492797       0.37578643 </v>
    <v>       0.37544727       0.37544727       0.87530460 </v>
    <v>       0.87492797       0.37578643       0.87492797 </v>
    <v>       0.37578643       0.87492797       0.87492797 </v>
    <v>       0.87039164       0.87039164       0.87039164 </v>
   </varray>
  </structure>
  <varray name="forces" >
   <v>       0.00021076       0.00000740       0.00000759 </v>
   <v>      -0.00028122      -0.00064029      -0.00064037 </v>
   <v>       0.00060720       0.00016908       0.00040553 </v>
   <v>      -0.00058094       0.00044035       0.00007248 </v>
   <v>       0.00060728       0.00040543       0.00016913 </v>
   <v>      -0.00058103       0.00007248       0.00044044 </v>
   <v>       0.00072737      -0.00023277      -0.00023284 </v>
   <v>      -0.00638078      -0.00360328      -0.00360333 </v>
   <v>       0.00655801       0.00636091      -0.00003062 </v>
   <v>      -0.00664758       0.00573499       0.00064896 </v>
   <v>       0.00694627      -0.00614445      -0.00044442 </v>
   <v>      -0.00696353      -0.00586138      -0.00010767 </v>
   <v>      -0.00285245      -0.00305169      -0.00019157 </v>
   <v>       0.00285248      -0.00336329      -0.00046498 </v>
   <v>      -0.00276356       0.00323464       0.00021168 </v>
   <v>      -0.00287828      -0.00014140       0.00358389 </v>
   <v>       0.00655794      -0.00003104       0.00636109 </v>
   <v>      -0.00664750       0.00064897       0.00573468 </v>
   <v>      -0.00285240      -0.00019159      -0.00305158 </v>
   <v>       0.00285243      -0.00046499      -0.00336330 </v>
   <v>       0.00694623      -0.00044444      -0.00614420 </v>
   <v>      -0.00696350      -0.00010726      -0.00586151 </v>
   <v>      -0.00276349       0.00021171       0.00323458 </v>
   <v>      -0.00287834       0.00358392      -0.00014144 </v>
   <v>       0.00020793       0.00634553       0.00634565 </v>
   <v>      -0.00028318      -0.00281101      -0.00281103 </v>
   <v>       0.00061087      -0.00650631       0.00595440 </v>
   <v>      -0.00060700       0.00302127      -0.00351559 </v>
   <v>       0.00061084       0.00595457      -0.00650605 </v>
   <v>      -0.00060696      -0.00351560       0.00302137 </v>
   <v>       0.00071767      -0.00610088      -0.00610115 </v>
   <v>      -0.00650700       0.00721210       0.00721204 </v>
   <v>      -0.01503587      -0.01486762      -0.01486753 </v>
   <v>       0.00009086       0.00053377       0.00053366 </v>
   <v>       0.00046599      -0.00157757       0.00053454 </v>
   <v>      -0.00041845      -0.00047493      -0.00035032 </v>
   <v>       0.00046625       0.00053497      -0.00157804 </v>
   <v>      -0.00041844      -0.00034986      -0.00047539 </v>
   <v>      -0.00085053      -0.00047671      -0.00047713 </v>
   <v>       0.04095371      -0.00107812      -0.00107854 </v>
   <v>       0.00084222       0.00052848       0.00052859 </v>
   <v>       0.01413276      -0.01487292      -0.01487285 </v>
   <v>       0.00046352      -0.00047896      -0.00033940 </v>
   <v>      -0.00052926      -0.00157794       0.00052928 </v>
   <v>       0.00046352      -0.00033983      -0.00047853 </v>
   <v>      -0.00052953       0.00052880      -0.00157751 </v>
   <v>      -0.00912761      -0.00089128      -0.00089080 </v>
   <v>      -0.00940093      -0.00046012      -0.00045968 </v>
   <v>       0.00044664       0.00157211       0.00061077 </v>
   <v>       0.00013322       0.00046791      -0.00070432 </v>
   <v>      -0.01494498       0.01487090      -0.01494419 </v>
   <v>      -0.00096621      -0.00052839       0.00087149 </v>
   <v>      -0.00062861       0.00047357      -0.00082291 </v>
   <v>       0.00175761       0.00090779       0.00047465 </v>
   <v>       0.00024491      -0.00053185      -0.00121917 </v>
   <v>       0.00216804       0.00036041      -0.00183710 </v>
   <v>       0.00021615       0.00081463      -0.00047638 </v>
   <v>      -0.00078525       0.00122362       0.00039437 </v>
   <v>       0.00130809      -0.00086301       0.00066263 </v>
   <v>       0.01460890       0.01520398      -0.01472431 </v>
   <v>      -0.00010632      -0.00013844      -0.00018476 </v>
   <v>      -0.00065262       0.00150644       0.00023638 </v>
   <v>      -0.00052263       0.00137658      -0.00117918 </v>
   <v>      -0.00152496      -0.00155944      -0.00228584 </v>
   <v>       0.00044638       0.00061038       0.00157255 </v>
   <v>       0.00013323      -0.00070475       0.00046834 </v>
   <v>      -0.00062863      -0.00082339       0.00047400 </v>
   <v>       0.00175760       0.00047420       0.00090825 </v>
   <v>      -0.01494498      -0.01494420       0.01487087 </v>
   <v>      -0.00096622       0.00087125      -0.00052819 </v>
   <v>       0.00024521      -0.00121963      -0.00053137 </v>
   <v>       0.00216805      -0.00183752       0.00036082 </v>
   <v>       0.00021616      -0.00047596       0.00081421 </v>
   <v>      -0.00078500       0.00039483       0.00122317 </v>
   <v>      -0.00010630      -0.00018431      -0.00013891 </v>
   <v>      -0.00065261       0.00023682       0.00150600 </v>
   <v>       0.00130809       0.00066284      -0.00086321 </v>
   <v>       0.01460890      -0.01472429       0.01520390 </v>
   <v>      -0.00052266      -0.00117875       0.00137613 </v>
   <v>      -0.00152525      -0.00228542      -0.00155984 </v>
   <v>      -0.00053691       0.00060939       0.00060895 </v>
   <v>       0.00116500       0.00018137       0.00018093 </v>
   <v>       0.00033403      -0.00039564       0.00143613 </v>
   <v>       0.00157064      -0.00035371       0.00116673 </v>
   <v>       0.00033376       0.00143658      -0.00039615 </v>
   <v>       0.00157062       0.00116719      -0.00035416 </v>
   <v>      -0.01506136       0.01473338       0.01473334 </v>
   <v>       0.00049671       0.00018666       0.00018654 </v>
   <v>      -0.00114579       0.00040563       0.00040608 </v>
   <v>       0.00050469       0.00056252       0.00056298 </v>
   <v>       0.00063570       0.00043359       0.00037951 </v>
   <v>      -0.00254784      -0.00101496       0.00204702 </v>
   <v>       0.00063569       0.00037909       0.00043402 </v>
   <v>      -0.00254754       0.00204658      -0.00101457 </v>
   <v>      -0.00047971      -0.00004637      -0.00004623 </v>
   <v>       0.01502560       0.01476794       0.01476784 </v>
  </varray>
  <varray name="stress" >
   <v>      -1.01840381      -0.00016266      -0.00016276 </v>
   <v>      -0.00016242      -1.01867526       0.00971387 </v>
   <v>      -0.00016230       0.00971446      -1.01867482 </v>
  </varray>
  <energy>
   <i name="e_fr_energy">   -277.76856054 </i>
   <i name="e_wo_entrp">   -277.76856054 </i>
   <i name="e_0_energy">     -0.00000000 </i>
  </energy>
  <time name="totalsc">  358.37  359.04</time>
  <eigenvalues>
   <array>
    <dimension dim="1">band</dimension>
    <dimension dim="2">kpoint</dimension>
    <dimension dim="3">spin</dimension>
    <field>eigene</field>
    <field>occ</field>
    <set>
     <set comment="spin 1">
      <set comment="kpoint 1">
       <r>   -5.4896    1.0000 </r>
       <r>   -4.7781    1.0000 </r>
       <r>   -4.7778    1.0000 </r>
       <r>   -4.7693    1.0000 </r>
       <r>   -4.7687    1.0000 </r>
       <r>   -4.7681    1.0000 </r>
       <r>   -4.7417    1.0000 </r>
       <r>   -4.2066    1.0000 </r>
       <r>   -4.2065    1.0000 </r>
       <r>   -4.2006    1.0000 </r>
       <r>   -4.2002    1.0000 </r>
       <r>   -4.1997    1.0000 </r>
       <r>   -4.1956    1.0000 </r>
       <r>   -4.1947    1.0000 </r>
       <r>   -4.1946    1.0000 </r>
       <r>   -4.1860    1.0000 </r>
       <r>   -4.1852    1.0000 </r>
       <r>   -4.1845    1.0000 </r>
       <r>   -4.1437    1.0000 </r>
       <r>   -4.0667    1.0000 </r>
       <r>   -4.0655    1.0000 </r>
       <r>   -4.0654    1.0000 </r>
       <r>   -4.0499    1.0000 </r>
       <r>   -3.5080    1.0000 </r>
       <r>   -3.5074    1.0000 </r>
       <r>   -3.4987    1.0000 </r>
       <r>   -3.4676    1.0000 </r>
       <r>   -3.4672    1.0000 </r>
       <r>   -3.4605    1.0000 </r>
       <r>   -3.4601    1.0000 </r>
       <r>   -3.4592    1.0000 </r>
       <r>   -3.3912    1.0000 </r>
       <r>   -1.1924    1.0000 </r>
       <r>   -1.1587    1.0000 </r>
       <r>   -1.1583    1.0000 </r>
       <r>   -1.1575    1.0000 </r>
       <r>   -0.8439    1.0000 </r>
       <r>   -0.8439    1.0000 </r>
       <r>   -0.8439    1.0000 </r>
       <r>   -0.0451    1.0000 </r>
       <r>   -0.0445    1.0000 </r>
       <r>   -0.0444    1.0000 </r>
       <r>   -0.0342    1.0000 </r>
       <r>   -0.0339    1.0000 </r>
       <r>   -0.0335    1.0000 </r>
       <r>   -0.0257    1.0000 </r>
       <r>   -0.0253    1.0000 </r>
       <r>   -0.0253    1.0000 </r>
       <r>   -0.0026    1.0000 </r>
       <r>   -0.0010    1.0000 </r>
       <r>   -0.0007    1.0000 </r>
       <r>    0.0104    1.0000 </r>
       <r>    0.0108    1.0000 </r>
       <r>    0.0113    1.0000 </r>
       <r>    0.0114    1.0000 </r>
       <r>    0.0116    1.0000 </r>
       <r>    0.0138    1.0000 </r>
       <r>    0.0147    1.0000 </r>
       <r>    0.0159    1.0000 </r>
       <r>    0.0537    1.0000 </r>
       <r>    0.0540    1.0000 </r>
       <r>    0.0545    1.0000 </r>
       <r>    0.0682    1.0000 </r>
       <r>    0.7628    1.0000 </r>
       <r>    0.7631    1.0000 </r>
       <r>    0.7696    1.0000 </r>
       <r>    0.7834    1.0000 </r>
       <r>    0.7840    1.0000 </r>
       <r>    0.7843    1.0000 </r>
       <r>    0.8001    1.0000 </r>
       <r>    0.8011    1.0000 </r>
       <r>    0.8011    1.0000 </r>
       <r>    0.8014    1.0000 </r>
       <r>    0.8023    1.0000 </r>
       <r>    0.8025    1.0000 </r>
       <r>    0.9187    1.0000 </r>
       <r>    0.9356    1.0000 </r>
       <r>    0.9358    1.0000 </r>
       <r>    0.9361    1.0000 </r>
       <r>    0.9576    1.0000 </r>
       <r>    0.9578    1.0000 </r>
       <r>    1.1734    1.0000 </r>
       <r>    1.1737    1.0000 </r>
       <r>    1.1737    1.0000 </r>
       <r>    1.1739    1.0000 </r>
       <r>    1.1742    1.0000 </r>
       <r>    1.2242    1.0000 </r>
       <r>    1.6499    1.0000 </r>
       <r>    1.6500    1.0000 </r>
       <r>    1.6502    1.0000 </r>
       <r>    1.6524    1.0000 </r>
       <r>    1.6526    1.0000 </r>
       <r>    1.6528    1.0000 </r>
       <r>    2.3241    1.0000 </r>
       <r>    2.3243    1.0000 </r>
       <r>    2.3245    1.0000 </r>
       <r>    2.3309    1.0000 </r>
       <r>    2.3311    1.0000 </r>
       <r>    2.3312    1.0000 </r>
       <r>    2.3313    1.0000 </r>
       <r>    2.3315    1.0000 </r>
       <r>    2.3320    1.0000 </r>
       <r>    2.3802    1.0000 </r>
       <r>    2.3808    1.0000 </r>
       <r>    2.3810    1.0000 </r>
       <r>    2.7669    1.0000 </r>
       <r>    2.7669    1.0000 </r>
       <r>    2.7678    1.0000 </r>
       <r>    2.7790    1.0000 </r>
       <r>    2.7793    1.0000 </r>
       <r>    2.7798    1.0000 </r>
       <r>    2.7880    1.0000 </r>
       <r>    2.7947    1.0000 </r>
       <r>    2.7957    1.0000 </r>
       <r>    2.8206    1.0000 </r>
       <r>    2.8215    1.0000 </r>
       <r>    2.8226    1.0000 </r>
       <r>    2.8684    1.0000 </r>
       <r>    2.8690    1.0000 </r>
       <r>    2.8945    1.0000 </r>
       <r>    2.8948    1.0000 </r>
       <r>    2.8956    1.0000 </r>
       <r>    2.9791    1.0000 </r>
       <r>    2.9792    1.0000 </r>
       <r>    2.9792    1.0000 </r>
       <r>    3.6209    1.0000 </r>
       <r>    3.6212    1.0000 </r>
       <r>    3.6215    1.0000 </r>
       <r>    3.7511    0.0000 </r>
       <r>    3.7924    0.0000 </r>
       <r>    3.7933    0.0000 </r>
       <r>    3.9521    0.0000 </r>
       <r>    3.9521    0.0000 </r>
       <r>    3.9521    0.0000 </r>
       <r>    4.7271    0.0000 </r>
       <r>    4.7276    0.0000 </r>
       <r>    4.7588    0.0000 </r>
       <r>    4.7593    0.0000 </r>
       <r>    4.7593    0.0000 </r>
       <r>    4.7622    0.0000 </r>
       <r>    4.8101    0.0000 </r>
       <r>    4.8108    0.0000 </r>
       <r>    4.8108    0.0000 </r>
       <r>    4.8418    0.0000 </r>
       <r>    5.3088    0.0000 </r>
       <r>    5.3098    0.0000 </r>
       <r>    5.3106    0.0000 </r>
       <r>    5.3192    0.0000 </r>
       <r>    5.3196    0.0000 </r>
       <r>    5.3253    0.0000 </r>
       <r>    5.3254    0.0000 </r>
       <r>    5.3258    0.0000 </r>
       <r>    5.3333    0.0000 </r>
       <r>    5.3644    0.0000 </r>
       <r>    5.3651    0.0000 </r>
       <r>    5.3653    0.0000 </r>
       <r>    5.3731    0.0000 </r>
       <r>    5.3735    0.0000 </r>
       <r>    5.3738    0.0000 </r>
       <r>    5.3743    0.0000 </r>
       <r>    5.4337    0.0000 </r>
       <r>    5.4340    0.0000 </r>
       <r>    5.5274    0.0000 </r>
       <r>    6.0775    0.0000 </r>
       <r>    6.0784    0.0000 </r>
       <r>    6.0787    0.0000 </r>
       <r>    6.0998    0.0000 </r>
       <r>    6.1003    0.0000 </r>
       <r>    6.1009    0.0000 </r>
       <r>    6.1456    0.0000 </r>
       <r>    6.1458    0.0000 </r>
       <r>    6.1492    0.0000 </r>
       <r>    6.1493    0.0000 </r>
       <r>    6.1496    0.0000 </r>
       <r>    6.2467    0.0000 </r>
       <r>    6.2496    0.0000 </r>
       <r>    6.2573    0.0000 </r>
       <r>    6.2738    0.0000 </r>
      </set>
     </set>
    </set>
   </array>
  </eigenvalues>
  <separator name="orbital magnetization" >
   <v name="MAGDIPOLOUT">      0.00000000      0.00000000      0.00000000</v>
  </separator>
  <dos>
   <i name="efermi">      3.68097676 </i>
   <total>
    <array>
     <dimension dim="1">gridpoints</dimension>
     <dimension dim="2">spin</dimension>
     <field>energy</field>
     <field>total</field>
     <field>integrated</field>
     <set>
      <set comment="spin 1">
       <r>    -6.0777     0.0000     0.0000 </r>
       <r>    -6.0346     0.0000     0.0000 </r>
       <r>    -5.9915     0.0000     0.0000 </r>
       <r>    -5.9483     0.0000     0.0000 </r>
       <r>    -5.9052     0.0000     0.0000 </r>
       <r>    -5.8621     0.0000     0.0000 </r>
       <r>    -5.8189     0.0000     0.0000 </r>
       <r>    -5.7758     0.0000     0.0000 </r>
       <r>    -5.7327     0.0000     0.0000 </r>
       <r>    -5.6896     0.0000     0.0000 </r>
       <r>    -5.6464     0.0000     0.0000 </r>
       <r>    -5.6033     0.0000     0.0000 </r>
       <r>    -5.5602     0.0000     0.0000 </r>
       <r>    -5.5170     0.0024     0.0001 </r>
       <r>    -5.4739    45.7509     1.9735 </r>
       <r>    -5.4308     0.6155     2.0000 </r>
       <r>    -5.3876     0.0000     2.0000 </r>
       <r>    -5.3445     0.0000     2.0000 </r>
       <r>    -5.3014     0.0000     2.0000 </r>
       <r>    -5.2582     0.0000     2.0000 </r>
       <r>    -5.2151     0.0000     2.0000 </r>
       <r>    -5.1720     0.0000     2.0000 </r>
       <r>    -5.1288     0.0000     2.0000 </r>
       <r>    -5.0857     0.0000     2.0000 </r>
       <r>    -5.0426     0.0000     2.0000 </r>
       <r>    -4.9994     0.0000     2.0000 </r>
       <r>    -4.9563     0.0000     2.0000 </r>
       <r>    -4.9132     0.0000     2.0000 </r>
       <r>    -4.8700     0.0000     2.0000 </r>
       <r>    -4.8269     0.0000     2.0000 </r>
       <r>    -4.7838    21.3707     2.9218 </r>
       <r>    -4.7406   236.5206    13.1235 </r>
       <r>    -4.6975    20.3214    14.0000 </r>
       <r>    -4.6544     0.0000    14.0000 </r>
       <r>    -4.6112     0.0000    14.0000 </r>
       <r>    -4.5681     0.0000    14.0000 </r>
       <r>    -4.5250     0.0000    14.0000 </r>
       <r>    -4.4818     0.0000    14.0000 </r>
       <r>    -4.4387     0.0000    14.0000 </r>
       <r>    -4.3956     0.0000    14.0000 </r>
       <r>    -4.3524     0.0000    14.0000 </r>
       <r>    -4.3093     0.0000    14.0000 </r>
       <r>    -4.2662     0.0000    14.0000 </r>
       <r>    -4.2230     0.9974    14.0430 </r>
       <r>    -4.1799   474.8788    34.5257 </r>
       <r>    -4.1368    72.9950    37.6742 </r>
       <r>    -4.0937     7.5604    38.0003 </r>
       <r>    -4.0505   158.4911    44.8364 </r>
       <r>    -4.0074    26.9777    46.0000 </r>
       <r>    -3.9643     0.0000    46.0000 </r>
       <r>    -3.9211     0.0000    46.0000 </r>
       <r>    -3.8780     0.0000    46.0000 </r>
       <r>    -3.8349     0.0000    46.0000 </r>
       <r>    -3.7917     0.0000    46.0000 </r>
       <r>    -3.7486     0.0000    46.0000 </r>
       <r>    -3.7055     0.0000    46.0000 </r>
       <r>    -3.6623     0.0000    46.0000 </r>
       <r>    -3.6192     0.0000    46.0000 </r>
       <r>    -3.5761     0.0000    46.0000 </r>
       <r>    -3.5329     0.0171    46.0007 </r>
       <r>    -3.4898   133.8370    51.7735 </r>
       <r>    -3.4467   232.6592    61.8086 </r>
       <r>    -3.4035     6.2992    62.0803 </r>
       <r>    -3.3604    44.5063    64.0000 </r>
       <r>    -3.3173     0.0003    64.0000 </r>
       <r>    -3.2741     0.0000    64.0000 </r>
       <r>    -3.2310     0.0000    64.0000 </r>
       <r>    -3.1879     0.0000    64.0000 </r>
       <r>    -3.1447     0.0000    64.0000 </r>
       <r>    -3.1016     0.0000    64.0000 </r>
       <r>    -3.0585     0.0000    64.0000 </r>
       <r>    -3.0153     0.0000    64.0000 </r>
       <r>    -2.9722     0.0000    64.0000 </r>
       <r>    -2.9291     0.0000    64.0000 </r>
       <r>    -2.8859     0.0000    64.0000 </r>
       <r>    -2.8428     0.0000    64.0000 </r>
       <r>    -2.7997     0.0000    64.0000 </r>
       <r>    -2.7565     0.0000    64.0000 </r>
       <r>    -2.7134     0.0000    64.0000 </r>
       <r>    -2.6703     0.0000    64.0000 </r>
       <r>    -2.6271     0.0000    64.0000 </r>
       <r>    -2.5840     0.0000    64.0000 </r>
       <r>    -2.5409     0.0000    64.0000 </r>
       <r>    -2.4977     0.0000    64.0000 </r>
       <r>    -2.4546     0.0000    64.0000 </r>
       <r>    -2.4115     0.0000    64.0000 </r>
       <r>    -2.3684     0.0000    64.0000 </r>
       <r>    -2.3252     0.0000    64.0000 </r>
       <r>    -2.2821     0.0000    64.0000 </r>
       <r>    -2.2390     0.0000    64.0000 </r>
       <r>    -2.1958     0.0000    64.0000 </r>
       <r>    -2.1527     0.0000    64.0000 </r>
       <r>    -2.1096     0.0000    64.0000 </r>
       <r>    -2.0664     0.0000    64.0000 </r>
       <r>    -2.0233     0.0000    64.0000 </r>
       <r>    -1.9802     0.0000    64.0000 </r>
       <r>    -1.9370     0.0000    64.0000 </r>
       <r>    -1.8939     0.0000    64.0000 </r>
       <r>    -1.8508     0.0000    64.0000 </r>
       <r>    -1.8076     0.0000    64.0000 </r>
       <r>    -1.7645     0.0000    64.0000 </r>
       <r>    -1.7214     0.0000    64.0000 </r>
       <r>    -1.6782     0.0000    64.0000 </r>
       <r>    -1.6351     0.0000    64.0000 </r>
       <r>    -1.5920     0.0000    64.0000 </r>
       <r>    -1.5488     0.0000    64.0000 </r>
       <r>    -1.5057     0.0000    64.0000 </r>
       <r>    -1.4626     0.0000    64.0000 </r>
       <r>    -1.4194     0.0000    64.0000 </r>
       <r>    -1.3763     0.0000    64.0000 </r>
       <r>    -1.3332     0.0000    64.0000 </r>
       <r>    -1.2900     0.0000    64.0000 </r>
       <r>    -1.2469     0.0000    64.0000 </r>
       <r>    -1.2038     2.5245    64.1089 </r>
       <r>    -1.1606    94.4991    68.1849 </r>
       <r>    -1.1175    88.4516    72.0000 </r>
       <r>    -1.0744     0.0000    72.0000 </r>
       <r>    -1.0312     0.0000    72.0000 </r>
       <r>    -0.9881     0.0000    72.0000 </r>
       <r>    -0.9450     0.0000    72.0000 </r>
       <r>    -0.9018     0.0000    72.0000 </r>
       <r>    -0.8587     2.5170    72.1086 </r>
       <r>    -0.8156   136.5850    77.9998 </r>
       <r>    -0.7725     0.0043    78.0000 </r>
       <r>    -0.7293     0.0000    78.0000 </r>
       <r>    -0.6862     0.0000    78.0000 </r>
       <r>    -0.6431     0.0000    78.0000 </r>
       <r>    -0.5999     0.0000    78.0000 </r>
       <r>    -0.5568     0.0000    78.0000 </r>
       <r>    -0.5137     0.0000    78.0000 </r>
       <r>    -0.4705     0.0000    78.0000 </r>
       <r>    -0.4274     0.0000    78.0000 </r>
       <r>    -0.3843     0.0000    78.0000 </r>
       <r>    -0.3411     0.0000    78.0000 </r>
       <r>    -0.2980     0.0000    78.0000 </r>
       <r>    -0.2549     0.0000    78.0000 </r>
       <r>    -0.2117     0.0000    78.0000 </r>
       <r>    -0.1686     0.0000    78.0000 </r>
       <r>    -0.1255     0.0000    78.0000 </r>
       <r>    -0.0823     0.0000    78.0000 </r>
       <r>    -0.0392   143.4885    84.1890 </r>
       <r>     0.0039   426.6505   102.5915 </r>
       <r>     0.0471   379.7417   118.9707 </r>
       <r>     0.0902   162.9269   125.9981 </r>
       <r>     0.1333     0.0430   126.0000 </r>
       <r>     0.1765     0.0000   126.0000 </r>
       <r>     0.2196     0.0000   126.0000 </r>
       <r>     0.2627     0.0000   126.0000 </r>
       <r>     0.3059     0.0000   126.0000 </r>
       <r>     0.3490     0.0000   126.0000 </r>
       <r>     0.3921     0.0000   126.0000 </r>
       <r>     0.4353     0.0000   126.0000 </r>
       <r>     0.4784     0.0000   126.0000 </r>
       <r>     0.5215     0.0000   126.0000 </r>
       <r>     0.5647     0.0000   126.0000 </r>
       <r>     0.6078     0.0000   126.0000 </r>
       <r>     0.6509     0.0000   126.0000 </r>
       <r>     0.6941     0.0000   126.0000 </r>
       <r>     0.7372     0.0127   126.0005 </r>
       <r>     0.7803   178.4939   133.6994 </r>
       <r>     0.8235   377.6438   149.9881 </r>
       <r>     0.8666     0.2749   150.0000 </r>
       <r>     0.9097     4.7109   150.2032 </r>
       <r>     0.9528   202.3666   158.9318 </r>
       <r>     0.9960    71.1351   162.0000 </r>
       <r>     1.0391     0.0000   162.0000 </r>
       <r>     1.0822     0.0000   162.0000 </r>
       <r>     1.1254     0.0000   162.0000 </r>
       <r>     1.1685    53.0249   164.2871 </r>
       <r>     1.2116   180.5880   172.0763 </r>
       <r>     1.2548    44.5994   174.0000 </r>
       <r>     1.2979     0.0003   174.0000 </r>
       <r>     1.3410     0.0000   174.0000 </r>
       <r>     1.3842     0.0000   174.0000 </r>
       <r>     1.4273     0.0000   174.0000 </r>
       <r>     1.4704     0.0000   174.0000 </r>
       <r>     1.5136     0.0000   174.0000 </r>
       <r>     1.5567     0.0000   174.0000 </r>
       <r>     1.5998     0.0000   174.0000 </r>
       <r>     1.6430    33.9237   175.4632 </r>
       <r>     1.6861   244.2888   186.0000 </r>
       <r>     1.7292     0.0002   186.0000 </r>
       <r>     1.7724     0.0000   186.0000 </r>
       <r>     1.8155     0.0000   186.0000 </r>
       <r>     1.8586     0.0000   186.0000 </r>
       <r>     1.9018     0.0000   186.0000 </r>
       <r>     1.9449     0.0000   186.0000 </r>
       <r>     1.9880     0.0000   186.0000 </r>
       <r>     2.0312     0.0000   186.0000 </r>
       <r>     2.0743     0.0000   186.0000 </r>
       <r>     2.1174     0.0000   186.0000 </r>
       <r>     2.1606     0.0000   186.0000 </r>
       <r>     2.2037     0.0000   186.0000 </r>
       <r>     2.2468     0.0000   186.0000 </r>
       <r>     2.2900     0.0001   186.0000 </r>
       <r>     2.3331   290.5475   198.5320 </r>
       <r>     2.3762   163.4543   205.5822 </r>
       <r>     2.4194   102.4234   210.0000 </r>
       <r>     2.4625     0.0000   210.0000 </r>
       <r>     2.5056     0.0000   210.0000 </r>
       <r>     2.5487     0.0000   210.0000 </r>
       <r>     2.5919     0.0000   210.0000 </r>
       <r>     2.6350     0.0000   210.0000 </r>
       <r>     2.6781     0.0000   210.0000 </r>
       <r>     2.7213     0.0000   210.0000 </r>
       <r>     2.7644    50.6428   212.1843 </r>
       <r>     2.8075   366.1678   227.9781 </r>
       <r>     2.8507   140.1102   234.0214 </r>
       <r>     2.8938   152.8690   240.6150 </r>
       <r>     2.9369    78.4796   244.0000 </r>
       <r>     2.9801    76.6746   247.3072 </r>
       <r>     3.0232    62.4318   250.0000 </r>
       <r>     3.0663     0.0000   250.0000 </r>
       <r>     3.1095     0.0000   250.0000 </r>
       <r>     3.1526     0.0000   250.0000 </r>
       <r>     3.1957     0.0000   250.0000 </r>
       <r>     3.2389     0.0000   250.0000 </r>
       <r>     3.2820     0.0000   250.0000 </r>
       <r>     3.3251     0.0000   250.0000 </r>
       <r>     3.3683     0.0000   250.0000 </r>
       <r>     3.4114     0.0000   250.0000 </r>
       <r>     3.4545     0.0000   250.0000 </r>
       <r>     3.4977     0.0000   250.0000 </r>
       <r>     3.5408     0.0000   250.0000 </r>
       <r>     3.5839     0.0000   250.0000 </r>
       <r>     3.6271   110.8717   254.7822 </r>
       <r>     3.6702    28.2347   256.0000 </r>
       <r>     3.7133     0.0000   256.0000 </r>
       <r>     3.7565    35.8975   257.5483 </r>
       <r>     3.7996    87.3522   261.3161 </r>
       <r>     3.8427    15.8567   262.0000 </r>
       <r>     3.8859     0.0000   262.0000 </r>
       <r>     3.9290     0.0744   262.0032 </r>
       <r>     3.9721   138.7065   267.9860 </r>
       <r>     4.0153     0.3255   268.0000 </r>
       <r>     4.0584     0.0000   268.0000 </r>
       <r>     4.1015     0.0000   268.0000 </r>
       <r>     4.1447     0.0000   268.0000 </r>
       <r>     4.1878     0.0000   268.0000 </r>
       <r>     4.2309     0.0000   268.0000 </r>
       <r>     4.2740     0.0000   268.0000 </r>
       <r>     4.3172     0.0000   268.0000 </r>
       <r>     4.3603     0.0000   268.0000 </r>
       <r>     4.4034     0.0000   268.0000 </r>
       <r>     4.4466     0.0000   268.0000 </r>
       <r>     4.4897     0.0000   268.0000 </r>
       <r>     4.5328     0.0000   268.0000 </r>
       <r>     4.5760     0.0000   268.0000 </r>
       <r>     4.6191     0.0000   268.0000 </r>
       <r>     4.6622     0.0000   268.0000 </r>
       <r>     4.7054     0.0875   268.0038 </r>
       <r>     4.7485   102.9180   272.4429 </r>
       <r>     4.7916   175.7260   280.0224 </r>
       <r>     4.8348   145.9084   286.3158 </r>
       <r>     4.8779    39.0479   288.0000 </r>
       <r>     4.9210     0.0000   288.0000 </r>
       <r>     4.9642     0.0000   288.0000 </r>
       <r>     5.0073     0.0000   288.0000 </r>
       <r>     5.0504     0.0000   288.0000 </r>
       <r>     5.0936     0.0000   288.0000 </r>
       <r>     5.1367     0.0000   288.0000 </r>
       <r>     5.1798     0.0000   288.0000 </r>
       <r>     5.2230     0.0000   288.0000 </r>
       <r>     5.2661     0.0000   288.0000 </r>
       <r>     5.3092    74.3424   291.2066 </r>
       <r>     5.3524   348.3353   306.2311 </r>
       <r>     5.3955   319.0284   319.9916 </r>
       <r>     5.4386    69.6825   322.9972 </r>
       <r>     5.4818    23.2495   324.0000 </r>
       <r>     5.5249    16.7729   324.7235 </r>
       <r>     5.5680    29.5959   326.0000 </r>
       <r>     5.6112     0.0000   326.0000 </r>
       <r>     5.6543     0.0000   326.0000 </r>
       <r>     5.6974     0.0000   326.0000 </r>
       <r>     5.7406     0.0000   326.0000 </r>
       <r>     5.7837     0.0000   326.0000 </r>
       <r>     5.8268     0.0000   326.0000 </r>
       <r>     5.8699     0.0000   326.0000 </r>
       <r>     5.9131     0.0000   326.0000 </r>
       <r>     5.9562     0.0000   326.0000 </r>
       <r>     5.9993     0.0000   326.0000 </r>
       <r>     6.0425     0.0000   326.0000 </r>
       <r>     6.0856   121.0865   331.2228 </r>
       <r>     6.1287   158.1344   338.0435 </r>
       <r>     6.1719   230.7249   347.9952 </r>
       <r>     6.2150     0.1110   348.0000 </r>
       <r>     6.2581   110.9094   352.7838 </r>
       <r>     6.3013    74.5631   355.9999 </r>
       <r>     6.3444     0.0024   356.0000 </r>
       <r>     6.3875     0.0000   356.0000 </r>
       <r>     6.4307     0.0000   356.0000 </r>
       <r>     6.4738     0.0000   356.0000 </r>
       <r>     6.5169     0.0000   356.0000 </r>
       <r>     6.5601     0.0000   356.0000 </r>
       <r>     6.6032     0.0000   356.0000 </r>
       <r>     6.6463     0.0000   356.0000 </r>
       <r>     6.6895     0.0000   356.0000 </r>
       <r>     6.7326     0.0000   356.0000 </r>
       <r>     6.7757     0.0000   356.0000 </r>
       <r>     6.8189     0.0000   356.0000 </r>
       <r>     6.8620     0.0000   356.0000 </r>
      </set>
     </set>
    </array>
   </total>
  </dos>
 </calculation>
 <structure name="finalpos" >
  <crystal>
   <varray name="basis" >
    <v>      12.74739769       0.00000000       0.00000000 </v>
    <v>       0.00000000      12.74739769       0.00000000 </v>
    <v>       0.00000000       0.00000000      12.74739769 </v>
   </varray>
   <i name="volume">   2071.40301882 </i>
   <varray name="rec_basis" >
    <v>       0.07844738       0.00000000       0.00000000 </v>
    <v>       0.00000000       0.07844738       0.00000000 </v>
    <v>       0.00000000       0.00000000       0.07844738 </v>
   </varray>
  </crystal>
  <varray name="positions" >
   <v>       0.00000000       0.00000000       0.00000000 </v>
   <v>       0.50000000       0.00000000       0.00000000 </v>
   <v>       0.00000000       0.50000000       0.00000000 </v>
   <v>       0.50000000       0.50000000       0.00000000 </v>
   <v>       0.00000000       0.00000000       0.50000000 </v>
   <v>       0.50000000       0.00000000       0.50000000 </v>
   <v>       0.00000000       0.50000000       0.50000000 </v>
   <v>       0.50000000       0.50000000       0.50000000 </v>
   <v>       0.25140293       0.25140293       0.00000000 </v>
   <v>       0.74859707       0.25140293       0.00000000 </v>
   <v>       0.25140293       0.74859707       0.00000000 </v>
   <v>       0.74859707       0.74859707       0.00000000 </v>
   <v>       0.25012668       0.25012668       0.50000000 </v>
   <v>       0.74987332       0.25012668       0.50000000 </v>
   <v>       0.25012668       0.74987332       0.50000000 </v>
   <v>       0.74987332       0.74987332       0.50000000 </v>
   <v>       0.25140293       0.00000000       0.25140293 </v>
   <v>       0.74859707       0.00000000       0.25140293 </v>
   <v>       0.25012668       0.50000000       0.25012668 </v>
   <v>       0.74987332       0.50000000       0.25012668 </v>
   <v>       0.25140293       0.00000000       0.74859707 </v>
   <v>       0.74859707       0.00000000       0.74859707 </v>
   <v>       0.25012668       0.50000000       0.74987332 </v>
   <v>       0.74987332       0.50000000       0.74987332 </v>
   <v>       0.00000000       0.25140293       0.25140293 </v>
   <v>       0.50000000       0.25012668       0.25012668 </v>
   <v>       0.00000000       0.74859707       0.25140293 </v>
   <v>       0.50000000       0.74987332       0.25012668 </v>
   <v>       0.00000000       0.25140293       0.74859707 </v>
   <v>       0.50000000       0.25012668       0.74987332 </v>
   <v>       0.00000000       0.74859707       0.74859707 </v>
   <v>       0.50000000       0.74987332       0.74987332 </v>
   <v>       0.12960836       0.12960836       0.12960836 </v>
   <v>       0.62421357       0.12507203       0.12507203 </v>
   <v>       0.12507203       0.62421357       0.12507203 </v>
   <v>       0.62455273       0.62455273       0.12469540 </v>
   <v>       0.12507203       0.12507203       0.62421357 </v>
   <v>       0.62455273       0.12469540       0.62455273 </v>
   <v>       0.12469540       0.62455273       0.62455273 </v>
   <v>       0.62429792       0.62508239       0.62508239 </v>
   <v>       0.37578643       0.12507203       0.12507203 </v>
   <v>       0.87039164       0.12960836       0.12960836 </v>
   <v>       0.37544727       0.62455273       0.12469540 </v>
   <v>       0.87492797       0.62421357       0.12507203 </v>
   <v>       0.37544727       0.12469540       0.62455273 </v>
   <v>       0.87492797       0.12507203       0.62421357 </v>
   <v>       0.37491761       0.62508239       0.62508239 </v>
   <v>       0.87530460       0.62455273       0.62455273 </v>
   <v>       0.12507203       0.37578643       0.12507203 </v>
   <v>       0.62455273       0.37544727       0.12469540 </v>
   <v>       0.12960836       0.87039164       0.12960836 </v>
   <v>       0.62421357       0.87492797       0.12507203 </v>
   <v>       0.12469540       0.37544727       0.62455273 </v>
   <v>       0.62508239       0.37491761       0.62508239 </v>
   <v>       0.12507203       0.87492797       0.62421357 </v>
   <v>       0.62455273       0.87530460       0.62455273 </v>
   <v>       0.37544727       0.37544727       0.12469540 </v>
   <v>       0.87492797       0.37578643       0.12507203 </v>
   <v>       0.37578643       0.87492797       0.12507203 </v>
   <v>       0.87039164       0.87039164       0.12960836 </v>
   <v>       0.37491761       0.37491761       0.62508239 </v>
   <v>       0.87530460       0.37544727       0.62455273 </v>
   <v>       0.37544727       0.87530460       0.62455273 </v>
   <v>       0.87492797       0.87492797       0.62421357 </v>
   <v>       0.12507203       0.12507203       0.37578643 </v>
   <v>       0.62455273       0.12469540       0.37544727 </v>
   <v>       0.12469540       0.62455273       0.37544727 </v>
   <v>       0.62508239       0.62508239       0.37491761 </v>
   <v>       0.12960836       0.12960836       0.87039164 </v>
   <v>       0.62421357       0.12507203       0.87492797 </v>
   <v>       0.12507203       0.62421357       0.87492797 </v>
   <v>       0.62455273       0.62455273       0.87530460 </v>
   <v>       0.37544727       0.12469540       0.37544727 </v>
   <v>       0.87492797       0.12507203       0.37578643 </v>
   <v>       0.37491761       0.62508239       0.37491761 </v>
   <v>       0.87530460       0.62455273       0.37544727 </v>
   <v>       0.37578643       0.12507203       0.87492797 </v>
   <v>       0.87039164       0.12960836       0.87039164 </v>
   <v>       0.37544727       0.62455273       0.87530460 </v>
   <v>       0.87492797       0.62421357       0.87492797 </v>
   <v>       0.12469540       0.37544727       0.37544727 </v>
   <v>       0.62508239       0.37491761       0.37491761 </v>
   <v>       0.12507203       0.87492797       0.37578643 </v>
   <v>       0.62455273       0.87530460       0.37544727 </v>
   <v>       0.12507203       0.37578643       0.87492797 </v>
   <v>       0.62455273       0.37544727       0.87530460 </v>
   <v>       0.12960836       0.87039164       0.87039164 </v>
   <v>       0.62421357       0.87492797       0.87492797 </v>
   <v>       0.37491761       0.37491761       0.37491761 </v>
   <v>       0.87530460       0.37544727       0.37544727 </v>
   <v>       0.37544727       0.87530460       0.37544727 </v>
   <v>       0.87492797       0.87492797       0.37578643 </v>
   <v>       0.37544727       0.37544727       0.87530460 </v>
   <v>       0.87492797       0.37578643       0.87492797 </v>
   <v>       0.37578643       0.87492797       0.87492797 </v>
   <v>       0.87039164       0.87039164       0.87039164 </v>
  </varray>
 </structure>
</modeling>
