<?xml version="1.0" encoding="ISO-8859-1"?>
<modeling>
 <generator>
  <i name="program" type="string">vasp </i>
  <i name="version" type="string">5.4.4.18Apr17-6-g9f103f2a35  </i>
  <i name="subversion" type="string">(build Apr 28 2017 11:12:57) complex            parallel </i>
  <i name="platform" type="string">LinuxIFC </i>
  <i name="date" type="string">2018 06 27 </i>
  <i name="time" type="string">23:33:41 </i>
 </generator>
 <incar>
  <i type="string" name="PREC">accurate</i>
  <i type="int" name="IALGO">    38</i>
  <i type="int" name="IBRION">    -1</i>
  <i name="EDIFF">      0.00000001</i>
  <i type="int" name="ISYM">     0</i>
  <i name="ENCUT">    270.00000000</i>
  <i type="logical" name="LREAL"> F  </i>
  <i type="int" name="ISMEAR">     0</i>
  <i name="SIGMA">      0.01000000</i>
  <i type="logical" name="LWAVE"> F  </i>
  <i type="logical" name="LCHARG"> F  </i>
  <v type="int" name="KPOINT_BSE">    -1     0     0     0</v>
 </incar>
 <structure name="primitive_cell" >
  <crystal>
   <varray name="basis" >
    <v>      12.74739769       0.00000000       0.00000000 </v>
    <v>       0.00000000      12.74739769       0.00000000 </v>
    <v>       0.00000000       0.00000000      12.74739769 </v>
   </varray>
   <i name="volume">   2071.40301882 </i>
   <varray name="rec_basis" >
    <v>       0.07844738       0.00000000       0.00000000 </v>
    <v>       0.00000000       0.07844738       0.00000000 </v>
    <v>       0.00000000       0.00000000       0.07844738 </v>
   </varray>
  </crystal>
  <varray name="positions" >
   <v>       0.00000000       0.00000000       0.00000000 </v>
   <v>       0.12882388       0.12960836       0.12960836 </v>
   <v>      -0.12960836       0.12960836       0.12960836 </v>
   <v>       0.12960836      -0.12960836       0.12960836 </v>
   <v>      -0.12960836      -0.12960836       0.12960836 </v>
   <v>       0.12960836       0.12960836      -0.12960836 </v>
   <v>      -0.12960836       0.12960836      -0.12960836 </v>
   <v>       0.12960836      -0.12960836      -0.12960836 </v>
   <v>      -0.12960836      -0.12960836      -0.12960836 </v>
   <v>       0.25140293       0.25140293       0.00000000 </v>
   <v>      -0.25140293       0.25140293       0.00000000 </v>
   <v>       0.25140293      -0.25140293       0.00000000 </v>
   <v>      -0.25140293      -0.25140293       0.00000000 </v>
   <v>       0.25140293       0.00000000       0.25140293 </v>
   <v>      -0.25140293       0.00000000       0.25140293 </v>
   <v>       0.25140293       0.00000000      -0.25140293 </v>
   <v>      -0.25140293       0.00000000      -0.25140293 </v>
   <v>       0.00000000       0.25140293       0.25140293 </v>
   <v>       0.00000000      -0.25140293       0.25140293 </v>
   <v>       0.00000000       0.25140293      -0.25140293 </v>
   <v>       0.00000000      -0.25140293      -0.25140293 </v>
   <v>      -0.37578643       0.12507203       0.12507203 </v>
   <v>       0.12507203      -0.37578643       0.12507203 </v>
   <v>       0.12507203       0.12507203      -0.37578643 </v>
   <v>       0.37578643       0.12507203       0.12507203 </v>
   <v>      -0.12507203      -0.37578643       0.12507203 </v>
   <v>      -0.12507203       0.12507203      -0.37578643 </v>
   <v>       0.12507203       0.37578643       0.12507203 </v>
   <v>      -0.37578643      -0.12507203       0.12507203 </v>
   <v>       0.12507203      -0.12507203      -0.37578643 </v>
   <v>      -0.12507203       0.37578643       0.12507203 </v>
   <v>       0.37578643      -0.12507203       0.12507203 </v>
   <v>      -0.12507203      -0.12507203      -0.37578643 </v>
   <v>       0.12507203       0.12507203       0.37578643 </v>
   <v>      -0.37578643       0.12507203      -0.12507203 </v>
   <v>       0.12507203      -0.37578643      -0.12507203 </v>
   <v>      -0.12507203       0.12507203       0.37578643 </v>
   <v>       0.37578643       0.12507203      -0.12507203 </v>
   <v>      -0.12507203      -0.37578643      -0.12507203 </v>
   <v>       0.12507203      -0.12507203       0.37578643 </v>
   <v>       0.12507203       0.37578643      -0.12507203 </v>
   <v>      -0.37578643      -0.12507203      -0.12507203 </v>
   <v>      -0.12507203      -0.12507203       0.37578643 </v>
   <v>      -0.12507203       0.37578643      -0.12507203 </v>
   <v>       0.37578643      -0.12507203      -0.12507203 </v>
   <v>      -0.50000000       0.00000000       0.00000000 </v>
   <v>       0.00000000      -0.50000000       0.00000000 </v>
   <v>       0.00000000       0.00000000      -0.50000000 </v>
   <v>      -0.37544727      -0.37544727       0.12469540 </v>
   <v>      -0.37544727       0.12469540      -0.37544727 </v>
   <v>       0.12469540      -0.37544727      -0.37544727 </v>
   <v>       0.37544727      -0.37544727       0.12469540 </v>
   <v>       0.37544727       0.12469540      -0.37544727 </v>
   <v>      -0.12469540      -0.37544727      -0.37544727 </v>
   <v>      -0.37544727       0.37544727       0.12469540 </v>
   <v>       0.12469540       0.37544727      -0.37544727 </v>
   <v>      -0.37544727      -0.12469540      -0.37544727 </v>
   <v>       0.37544727       0.37544727       0.12469540 </v>
   <v>      -0.12469540       0.37544727      -0.37544727 </v>
   <v>       0.37544727      -0.12469540      -0.37544727 </v>
   <v>      -0.37544727       0.12469540       0.37544727 </v>
   <v>       0.12469540      -0.37544727       0.37544727 </v>
   <v>      -0.37544727      -0.37544727      -0.12469540 </v>
   <v>       0.37544727       0.12469540       0.37544727 </v>
   <v>      -0.12469540      -0.37544727       0.37544727 </v>
   <v>       0.37544727      -0.37544727      -0.12469540 </v>
   <v>       0.12469540       0.37544727       0.37544727 </v>
   <v>      -0.37544727      -0.12469540       0.37544727 </v>
   <v>      -0.37544727       0.37544727      -0.12469540 </v>
   <v>      -0.12469540       0.37544727       0.37544727 </v>
   <v>       0.37544727      -0.12469540       0.37544727 </v>
   <v>       0.37544727       0.37544727      -0.12469540 </v>
   <v>       0.25012668       0.25012668      -0.50000000 </v>
   <v>      -0.25012668       0.25012668      -0.50000000 </v>
   <v>       0.25012668      -0.25012668      -0.50000000 </v>
   <v>      -0.25012668      -0.25012668      -0.50000000 </v>
   <v>       0.25012668      -0.50000000       0.25012668 </v>
   <v>      -0.25012668      -0.50000000       0.25012668 </v>
   <v>       0.25012668      -0.50000000      -0.25012668 </v>
   <v>      -0.25012668      -0.50000000      -0.25012668 </v>
   <v>      -0.50000000       0.25012668       0.25012668 </v>
   <v>      -0.50000000      -0.25012668       0.25012668 </v>
   <v>      -0.50000000       0.25012668      -0.25012668 </v>
   <v>      -0.50000000      -0.25012668      -0.25012668 </v>
   <v>      -0.37491761      -0.37491761      -0.37491761 </v>
   <v>       0.37491761      -0.37491761      -0.37491761 </v>
   <v>      -0.37491761       0.37491761      -0.37491761 </v>
   <v>       0.37491761       0.37491761      -0.37491761 </v>
   <v>      -0.37491761      -0.37491761       0.37491761 </v>
   <v>       0.37491761      -0.37491761       0.37491761 </v>
   <v>      -0.37491761       0.37491761       0.37491761 </v>
   <v>       0.37491761       0.37491761       0.37491761 </v>
   <v>      -0.50000000      -0.50000000       0.00000000 </v>
   <v>      -0.50000000       0.00000000      -0.50000000 </v>
   <v>       0.00000000      -0.50000000      -0.50000000 </v>
   <v>      -0.50000000      -0.50000000      -0.50000000 </v>
  </varray>
 </structure>
 <varray name="primitive_index" >
  <v type="int" >        1 </v>
  <v type="int" >       33 </v>
  <v type="int" >       42 </v>
  <v type="int" >       51 </v>
  <v type="int" >       60 </v>
  <v type="int" >       69 </v>
  <v type="int" >       78 </v>
  <v type="int" >       87 </v>
  <v type="int" >       96 </v>
  <v type="int" >        9 </v>
  <v type="int" >       10 </v>
  <v type="int" >       11 </v>
  <v type="int" >       12 </v>
  <v type="int" >       17 </v>
  <v type="int" >       18 </v>
  <v type="int" >       21 </v>
  <v type="int" >       22 </v>
  <v type="int" >       25 </v>
  <v type="int" >       27 </v>
  <v type="int" >       29 </v>
  <v type="int" >       31 </v>
  <v type="int" >       34 </v>
  <v type="int" >       35 </v>
  <v type="int" >       37 </v>
  <v type="int" >       41 </v>
  <v type="int" >       44 </v>
  <v type="int" >       46 </v>
  <v type="int" >       49 </v>
  <v type="int" >       52 </v>
  <v type="int" >       55 </v>
  <v type="int" >       58 </v>
  <v type="int" >       59 </v>
  <v type="int" >       64 </v>
  <v type="int" >       65 </v>
  <v type="int" >       70 </v>
  <v type="int" >       71 </v>
  <v type="int" >       74 </v>
  <v type="int" >       77 </v>
  <v type="int" >       80 </v>
  <v type="int" >       83 </v>
  <v type="int" >       85 </v>
  <v type="int" >       88 </v>
  <v type="int" >       92 </v>
  <v type="int" >       94 </v>
  <v type="int" >       95 </v>
  <v type="int" >        2 </v>
  <v type="int" >        3 </v>
  <v type="int" >        5 </v>
  <v type="int" >       36 </v>
  <v type="int" >       38 </v>
  <v type="int" >       39 </v>
  <v type="int" >       43 </v>
  <v type="int" >       45 </v>
  <v type="int" >       48 </v>
  <v type="int" >       50 </v>
  <v type="int" >       53 </v>
  <v type="int" >       56 </v>
  <v type="int" >       57 </v>
  <v type="int" >       62 </v>
  <v type="int" >       63 </v>
  <v type="int" >       66 </v>
  <v type="int" >       67 </v>
  <v type="int" >       72 </v>
  <v type="int" >       73 </v>
  <v type="int" >       76 </v>
  <v type="int" >       79 </v>
  <v type="int" >       81 </v>
  <v type="int" >       84 </v>
  <v type="int" >       86 </v>
  <v type="int" >       90 </v>
  <v type="int" >       91 </v>
  <v type="int" >       93 </v>
  <v type="int" >       13 </v>
  <v type="int" >       14 </v>
  <v type="int" >       15 </v>
  <v type="int" >       16 </v>
  <v type="int" >       19 </v>
  <v type="int" >       20 </v>
  <v type="int" >       23 </v>
  <v type="int" >       24 </v>
  <v type="int" >       26 </v>
  <v type="int" >       28 </v>
  <v type="int" >       30 </v>
  <v type="int" >       32 </v>
  <v type="int" >       40 </v>
  <v type="int" >       47 </v>
  <v type="int" >       54 </v>
  <v type="int" >       61 </v>
  <v type="int" >       68 </v>
  <v type="int" >       75 </v>
  <v type="int" >       82 </v>
  <v type="int" >       89 </v>
  <v type="int" >        4 </v>
  <v type="int" >        6 </v>
  <v type="int" >        7 </v>
  <v type="int" >        8 </v>
 </varray>
 <kpoints>
  <generation param="Gamma">
   <v type="int" name="divisions">       1        1        1 </v>
   <v name="usershift">      0.00000000       0.00000000       0.00000000 </v>
   <v name="genvec1">      1.00000000       0.00000000       0.00000000 </v>
   <v name="genvec2">      0.00000000       1.00000000       0.00000000 </v>
   <v name="genvec3">      0.00000000       0.00000000       1.00000000 </v>
   <v name="shift">      0.00000000       0.00000000       0.00000000 </v>
  </generation>
  <varray name="kpointlist" >
   <v>       0.00000000       0.00000000       0.00000000 </v>
  </varray>
  <varray name="weights" >
   <v>       1.00000000 </v>
  </varray>
 </kpoints>
 <parameters>
  <separator name="general" >
   <i type="string" name="SYSTEM">unknown system</i>
   <i type="logical" name="LCOMPAT"> F  </i>
  </separator>
  <separator name="electronic" >
   <i type="string" name="PREC">accura</i>
   <i name="ENMAX">    270.00000000</i>
   <i name="ENAUG">    454.73400000</i>
   <i name="EDIFF">      0.00000001</i>
   <i type="int" name="IALGO">    38</i>
   <i type="int" name="IWAVPR">    10</i>
   <i type="int" name="NBANDS">   178</i>
   <i name="NELECT">    256.00000000</i>
   <i type="int" name="TURBO">     0</i>
   <i type="int" name="IRESTART">     0</i>
   <i type="int" name="NREBOOT">     0</i>
   <i type="int" name="NMIN">     0</i>
   <i name="EREF">      0.00000000</i>
   <separator name="electronic smearing" >
    <i type="int" name="ISMEAR">     0</i>
    <i name="SIGMA">      0.01000000</i>
    <i name="KSPACING">      0.50000000</i>
    <i type="logical" name="KGAMMA"> T  </i>
   </separator>
   <separator name="electronic projectors" >
    <i type="logical" name="LREAL"> F  </i>
    <v name="ROPT">      0.00000000      0.00000000      0.00000000</v>
    <i type="int" name="LMAXPAW">  -100</i>
    <i type="int" name="LMAXMIX">     2</i>
    <i type="logical" name="NLSPLINE"> F  </i>
   </separator>
   <separator name="electronic startup" >
    <i type="int" name="ISTART">     0</i>
    <i type="int" name="ICHARG">     2</i>
    <i type="int" name="INIWAV">     1</i>
   </separator>
   <separator name="electronic spin" >
    <i type="int" name="ISPIN">     1</i>
    <i type="logical" name="LNONCOLLINEAR"> F  </i>
    <v name="MAGMOM">      1.00000000      1.00000000      1.00000000      1.00000000      1.00000000      1.00000000      1.00000000      1.00000000      1.00000000      1.00000000      1.00000000      1.00000000      1.00000000      1.00000000      1.00000000      1.00000000      1.00000000      1.00000000      1.00000000      1.00000000
      1.00000000      1.00000000      1.00000000      1.00000000      1.00000000      1.00000000      1.00000000      1.00000000      1.00000000      1.00000000      1.00000000      1.00000000      1.00000000      1.00000000      1.00000000      1.00000000      1.00000000      1.00000000      1.00000000      1.00000000
      1.00000000      1.00000000      1.00000000      1.00000000      1.00000000      1.00000000      1.00000000      1.00000000      1.00000000      1.00000000      1.00000000      1.00000000      1.00000000      1.00000000      1.00000000      1.00000000      1.00000000      1.00000000      1.00000000      1.00000000
      1.00000000      1.00000000      1.00000000      1.00000000      1.00000000      1.00000000      1.00000000      1.00000000      1.00000000      1.00000000      1.00000000      1.00000000      1.00000000      1.00000000      1.00000000      1.00000000      1.00000000      1.00000000      1.00000000      1.00000000
      1.00000000      1.00000000      1.00000000      1.00000000      1.00000000      1.00000000      1.00000000      1.00000000      1.00000000      1.00000000      1.00000000      1.00000000      1.00000000      1.00000000      1.00000000      1.00000000</v>
    <i name="NUPDOWN">     -1.00000000</i>
    <i type="logical" name="LSORBIT"> F  </i>
    <v name="SAXIS">      0.00000000      0.00000000      1.00000000</v>
    <i type="logical" name="LSPIRAL"> F  </i>
    <v name="QSPIRAL">      0.00000000      0.00000000      0.00000000</v>
    <i type="logical" name="LZEROZ"> F  </i>
   </separator>
   <separator name="electronic exchange-correlation" >
    <i type="logical" name="LASPH"> F  </i>
    <i type="logical" name="LMETAGGA"> F  </i>
   </separator>
   <separator name="electronic convergence" >
    <i type="int" name="NELM">    60</i>
    <i type="int" name="NELMDL">    -5</i>
    <i type="int" name="NELMIN">     2</i>
    <i name="ENINI">    270.00000000</i>
    <separator name="electronic convergence detail" >
     <i type="logical" name="LDIAG"> T  </i>
     <i type="logical" name="LSUBROT"> F  </i>
     <i name="WEIMIN">      0.00000000</i>
     <i name="EBREAK">      0.00000000</i>
     <i name="DEPER">      0.30000000</i>
     <i type="int" name="NRMM">     4</i>
     <i name="TIME">      0.40000000</i>
    </separator>
   </separator>
   <separator name="electronic mixer" >
    <i name="AMIX">      0.40000000</i>
    <i name="BMIX">      1.00000000</i>
    <i name="AMIN">      0.10000000</i>
    <i name="AMIX_MAG">      1.60000000</i>
    <i name="BMIX_MAG">      1.00000000</i>
    <separator name="electronic mixer details" >
     <i type="int" name="IMIX">     4</i>
     <i type="logical" name="MIXFIRST"> F  </i>
     <i type="int" name="MAXMIX">   -45</i>
     <i name="WC">    100.00000000</i>
     <i type="int" name="INIMIX">     1</i>
     <i type="int" name="MIXPRE">     1</i>
     <i type="int" name="MREMOVE">     5</i>
    </separator>
   </separator>
   <separator name="electronic dipolcorrection" >
    <i type="logical" name="LDIPOL"> F  </i>
    <i type="logical" name="LMONO"> F  </i>
    <i type="int" name="IDIPOL">     0</i>
    <i name="EPSILON">      1.00000000</i>
    <v name="DIPOL">   -100.00000000   -100.00000000   -100.00000000</v>
    <i name="EFIELD">      0.00000000</i>
   </separator>
  </separator>
  <separator name="grids" >
   <i type="int" name="NGX">    70</i>
   <i type="int" name="NGY">    70</i>
   <i type="int" name="NGZ">    70</i>
   <i type="int" name="NGXF">   140</i>
   <i type="int" name="NGYF">   140</i>
   <i type="int" name="NGZF">   140</i>
   <i type="logical" name="ADDGRID"> F  </i>
  </separator>
  <separator name="ionic" >
   <i type="int" name="NSW">     0</i>
   <i type="int" name="IBRION">    -1</i>
   <i type="int" name="MDALGO">     0</i>
   <i type="int" name="ISIF">     2</i>
   <i name="PSTRESS">      0.00000000</i>
   <i name="EDIFFG">      0.00000010</i>
   <i type="int" name="NFREE">     0</i>
   <i name="POTIM">      0.50000000</i>
   <i name="SMASS">     -3.00000000</i>
   <i name="SCALEE">      1.00000000</i>
  </separator>
  <separator name="ionic md" >
   <i name="TEBEG">      0.00010000</i>
   <i name="TEEND">      0.00010000</i>
   <i type="int" name="NBLOCK">     1</i>
   <i type="int" name="KBLOCK">     1</i>
   <i type="int" name="NPACO">   256</i>
   <i name="APACO">     16.00000000</i>
  </separator>
  <separator name="symmetry" >
   <i type="int" name="ISYM">     0</i>
   <i name="SYMPREC">      0.00001000</i>
  </separator>
  <separator name="dos" >
   <i type="int" name="LORBIT">     0</i>
   <v name="RWIGS">     -1.00000000     -1.00000000     -1.00000000</v>
   <i type="int" name="NEDOS">   301</i>
   <i name="EMIN">     10.00000000</i>
   <i name="EMAX">    -10.00000000</i>
   <i name="EFERMI">      0.00000000</i>
  </separator>
  <separator name="writing" >
   <i type="int" name="NWRITE">     2</i>
   <i type="logical" name="LWAVE"> F  </i>
   <i type="logical" name="LDOWNSAMPLE"> F  </i>
   <i type="logical" name="LCHARG"> F  </i>
   <i type="logical" name="LPARD"> F  </i>
   <i type="logical" name="LVTOT"> F  </i>
   <i type="logical" name="LVHAR"> F  </i>
   <i type="logical" name="LELF"> F  </i>
   <i type="logical" name="LOPTICS"> F  </i>
   <v name="STM">      0.00000000      0.00000000      0.00000000      0.00000000      0.00000000      0.00000000      0.00000000</v>
  </separator>
  <separator name="performance" >
   <i type="int" name="NPAR">     2</i>
   <i type="int" name="NSIM">     4</i>
   <i type="int" name="NBLK">    -1</i>
   <i type="logical" name="LPLANE"> T  </i>
   <i type="logical" name="LSCALAPACK"> T  </i>
   <i type="logical" name="LSCAAWARE"> F  </i>
   <i type="logical" name="LSCALU"> F  </i>
   <i type="logical" name="LASYNC"> F  </i>
   <i type="logical" name="LORBITALREAL"> F  </i>
  </separator>
  <separator name="miscellaneous" >
   <i type="int" name="IDIOT">     3</i>
   <i type="int" name="ISPECIAL">     0</i>
   <i type="logical" name="LMUSIC"> F  </i>
   <v name="POMASS">    118.71000000     28.08500000     24.30500000</v>
   <v name="DARWINR">      0.00000000      0.00000000      0.00000000</v>
   <v name="DARWINV">      1.00000000      1.00000000      1.00000000</v>
   <i type="logical" name="LCORR"> T  </i>
  </separator>
  <i type="logical" name="GGA_COMPAT"> T  </i>
  <i type="logical" name="LBERRY"> F  </i>
  <i type="int" name="ICORELEVEL">     0</i>
  <i type="logical" name="LDAU"> F  </i>
  <i type="int" name="I_CONSTRAINED_M">     0</i>
  <separator name="electronic exchange-correlation" >
   <i type="string" name="GGA">--</i>
   <i type="int" name="VOSKOWN">     0</i>
   <i type="logical" name="LHFCALC"> F  </i>
   <i type="string" name="PRECFOCK"></i>
   <i type="logical" name="LSYMGRAD"> F  </i>
   <i type="logical" name="LHFONE"> F  </i>
   <i type="logical" name="LRHFCALC"> F  </i>
   <i type="logical" name="LTHOMAS"> F  </i>
   <i type="logical" name="LMODELHF"> F  </i>
   <i name="ENCUT4O">     -1.00000000</i>
   <i type="int" name="EXXOEP">     0</i>
   <i type="int" name="FOURORBIT">     0</i>
   <i name="AEXX">      0.00000000</i>
   <i name="HFALPHA">      0.00000000</i>
   <i name="MCALPHA">      0.00000000</i>
   <i name="ALDAX">      1.00000000</i>
   <i name="AGGAX">      1.00000000</i>
   <i name="ALDAC">      1.00000000</i>
   <i name="AGGAC">      1.00000000</i>
   <i type="int" name="NKREDX">     1</i>
   <i type="int" name="NKREDY">     1</i>
   <i type="int" name="NKREDZ">     1</i>
   <i type="logical" name="SHIFTRED"> F  </i>
   <i type="logical" name="ODDONLY"> F  </i>
   <i type="logical" name="EVENONLY"> F  </i>
   <i type="int" name="LMAXFOCK">     0</i>
   <i type="int" name="NMAXFOCKAE">     0</i>
   <i type="logical" name="LFOCKAEDFT"> F  </i>
   <i name="HFSCREEN">      0.00000000</i>
   <i name="HFSCREENC">      0.00000000</i>
   <i type="int" name="NBANDSGWLOW">     0</i>
  </separator>
  <separator name="vdW DFT" >
   <i type="logical" name="LUSE_VDW"> F  </i>
   <i name="Zab_VDW">     -0.84910000</i>
   <i name="PARAM1">      0.12340000</i>
   <i name="PARAM2">      1.00000000</i>
   <i name="PARAM3">      0.00000000</i>
  </separator>
  <separator name="model GW" >
   <i type="int" name="MODEL_GW">     0</i>
   <i name="MODEL_EPS0">     12.94626887</i>
   <i name="MODEL_ALPHA">      1.00000000</i>
  </separator>
  <separator name="linear response parameters" >
   <i type="logical" name="LEPSILON"> F  </i>
   <i type="logical" name="LRPA"> F  </i>
   <i type="logical" name="LNABLA"> F  </i>
   <i type="logical" name="LVEL"> F  </i>
   <i type="int" name="KINTER">     0</i>
   <i name="CSHIFT">      0.10000000</i>
   <i name="OMEGAMAX">     -1.00000000</i>
   <i name="DEG_THRESHOLD">      0.00200000</i>
   <i name="RTIME">     -0.10000000</i>
   <i name="WPLASMAI">      0.00000000</i>
   <v name="DFIELD">      0.00000000      0.00000000      0.00000000</v>
   <v name="WPLASMA">      0.00000000      0.00000000      0.00000000      0.00000000      0.00000000      0.00000000      0.00000000      0.00000000      0.00000000</v>
  </separator>
  <separator name="orbital magnetization" >
   <i type="logical" name="NUCIND"> F  </i>
   <v name="MAGPOS">      0.00000000      0.00000000      0.00000000</v>
   <i type="logical" name="LNICSALL"> T  </i>
   <i type="logical" name="ORBITALMAG"> F  </i>
   <i type="logical" name="LMAGBLOCH"> F  </i>
   <i type="logical" name="LCHIMAG"> F  </i>
   <i type="logical" name="LGAUGE"> T  </i>
   <i type="int" name="MAGATOM">     0</i>
   <v name="MAGDIPOL">      0.00000000      0.00000000      0.00000000</v>
   <v name="AVECCONST">      0.00000000      0.00000000      0.00000000</v>
  </separator>
  <separator name="response functions" >
   <i type="logical" name="LADDER"> F  </i>
   <i type="logical" name="LRPAFORCE"> F  </i>
   <i type="logical" name="LFXC"> F  </i>
   <i type="logical" name="LHARTREE"> T  </i>
   <i type="int" name="IBSE">     0</i>
   <v type="int" name="KPOINT">    -1     0     0     0</v>
   <i type="logical" name="LTCTE"> F  </i>
   <i type="logical" name="LTETE"> F  </i>
   <i type="logical" name="LTRIPLET"> F  </i>
   <i type="logical" name="LFXCEPS"> F  </i>
   <i type="logical" name="LFXHEG"> F  </i>
   <i type="int" name="NATURALO">     2</i>
   <i type="logical" name="L2ORDER"> F  </i>
   <i type="logical" name="LMP2LT"> F  </i>
   <i type="logical" name="LUSEW"> F  </i>
   <i name="ENCUTGW">     -2.00000000</i>
   <i name="ENCUTGWSOFT">     -2.00000000</i>
   <i name="ENCUTLF">     -1.00000000</i>
   <i type="int" name="LMAXMP2">    -1</i>
   <i name="SCISSOR">      0.00000000</i>
   <i type="int" name="NOMEGA">     0</i>
   <i type="int" name="NOMEGAR">     0</i>
   <i type="int" name="NBANDSGW">    -1</i>
   <i type="int" name="NBANDSO">    -1</i>
   <i type="int" name="NBANDSV">    -1</i>
   <i type="int" name="NELM">     1</i>
   <i type="int" name="NELMHF">     1</i>
   <i type="int" name="DIM">     3</i>
   <i type="int" name="ANTIRES">     0</i>
   <i name="OMEGAMAX">    -30.00000000</i>
   <i name="OMEGAMIN">    -30.00000000</i>
   <i name="OMEGATL">   -200.00000000</i>
   <i type="int" name="OMEGAGRID">   140</i>
   <i name="CSHIFT">     -0.10000000</i>
   <i type="logical" name="SELFENERGY"> F  </i>
   <i type="logical" name="LSPECTRAL"> F  </i>
   <i type="logical" name="LSPECTRALGW"> F  </i>
   <i type="logical" name="LSINGLES"> F  </i>
   <i type="logical" name="LFERMIGW"> F  </i>
   <i type="logical" name="ODDONLYGW"> F  </i>
   <i type="logical" name="EVENONLYGW"> F  </i>
   <i type="int" name="NKREDLFX">     1</i>
   <i type="int" name="NKREDLFY">     1</i>
   <i type="int" name="NKREDLFZ">     1</i>
   <i type="int" name="MAXMEM">  2800</i>
   <i type="int" name="TELESCOPE">     0</i>
   <i type="int" name="TAUPAR">     1</i>
   <i type="int" name="OMEGAPAR">    -1</i>
   <i name="LAMBDA">      1.00000000</i>
  </separator>
  <separator name="External order field" >
   <i name="OFIELD_KAPPA">      0.00000000</i>
   <v name="OFIELD_K">      0.00000000      0.00000000      0.00000000</v>
   <i name="OFIELD_Q6_NEAR">      0.00000000</i>
   <i name="OFIELD_Q6_FAR">      0.00000000</i>
   <i name="OFIELD_A">      0.00000000</i>
  </separator>
 </parameters>
 <atominfo>
  <atoms>      96 </atoms>
  <types>       3 </types>
  <array name="atoms" >
   <dimension dim="1">ion</dimension>
   <field type="string">element</field>
   <field type="int">atomtype</field>
   <set>
    <rc><c>Sn</c><c>   1</c></rc>
    <rc><c>Si</c><c>   2</c></rc>
    <rc><c>Si</c><c>   2</c></rc>
    <rc><c>Si</c><c>   2</c></rc>
    <rc><c>Si</c><c>   2</c></rc>
    <rc><c>Si</c><c>   2</c></rc>
    <rc><c>Si</c><c>   2</c></rc>
    <rc><c>Si</c><c>   2</c></rc>
    <rc><c>Si</c><c>   2</c></rc>
    <rc><c>Si</c><c>   2</c></rc>
    <rc><c>Si</c><c>   2</c></rc>
    <rc><c>Si</c><c>   2</c></rc>
    <rc><c>Si</c><c>   2</c></rc>
    <rc><c>Si</c><c>   2</c></rc>
    <rc><c>Si</c><c>   2</c></rc>
    <rc><c>Si</c><c>   2</c></rc>
    <rc><c>Si</c><c>   2</c></rc>
    <rc><c>Si</c><c>   2</c></rc>
    <rc><c>Si</c><c>   2</c></rc>
    <rc><c>Si</c><c>   2</c></rc>
    <rc><c>Si</c><c>   2</c></rc>
    <rc><c>Si</c><c>   2</c></rc>
    <rc><c>Si</c><c>   2</c></rc>
    <rc><c>Si</c><c>   2</c></rc>
    <rc><c>Si</c><c>   2</c></rc>
    <rc><c>Si</c><c>   2</c></rc>
    <rc><c>Si</c><c>   2</c></rc>
    <rc><c>Si</c><c>   2</c></rc>
    <rc><c>Si</c><c>   2</c></rc>
    <rc><c>Si</c><c>   2</c></rc>
    <rc><c>Si</c><c>   2</c></rc>
    <rc><c>Si</c><c>   2</c></rc>
    <rc><c>Mg</c><c>   3</c></rc>
    <rc><c>Mg</c><c>   3</c></rc>
    <rc><c>Mg</c><c>   3</c></rc>
    <rc><c>Mg</c><c>   3</c></rc>
    <rc><c>Mg</c><c>   3</c></rc>
    <rc><c>Mg</c><c>   3</c></rc>
    <rc><c>Mg</c><c>   3</c></rc>
    <rc><c>Mg</c><c>   3</c></rc>
    <rc><c>Mg</c><c>   3</c></rc>
    <rc><c>Mg</c><c>   3</c></rc>
    <rc><c>Mg</c><c>   3</c></rc>
    <rc><c>Mg</c><c>   3</c></rc>
    <rc><c>Mg</c><c>   3</c></rc>
    <rc><c>Mg</c><c>   3</c></rc>
    <rc><c>Mg</c><c>   3</c></rc>
    <rc><c>Mg</c><c>   3</c></rc>
    <rc><c>Mg</c><c>   3</c></rc>
    <rc><c>Mg</c><c>   3</c></rc>
    <rc><c>Mg</c><c>   3</c></rc>
    <rc><c>Mg</c><c>   3</c></rc>
    <rc><c>Mg</c><c>   3</c></rc>
    <rc><c>Mg</c><c>   3</c></rc>
    <rc><c>Mg</c><c>   3</c></rc>
    <rc><c>Mg</c><c>   3</c></rc>
    <rc><c>Mg</c><c>   3</c></rc>
    <rc><c>Mg</c><c>   3</c></rc>
    <rc><c>Mg</c><c>   3</c></rc>
    <rc><c>Mg</c><c>   3</c></rc>
    <rc><c>Mg</c><c>   3</c></rc>
    <rc><c>Mg</c><c>   3</c></rc>
    <rc><c>Mg</c><c>   3</c></rc>
    <rc><c>Mg</c><c>   3</c></rc>
    <rc><c>Mg</c><c>   3</c></rc>
    <rc><c>Mg</c><c>   3</c></rc>
    <rc><c>Mg</c><c>   3</c></rc>
    <rc><c>Mg</c><c>   3</c></rc>
    <rc><c>Mg</c><c>   3</c></rc>
    <rc><c>Mg</c><c>   3</c></rc>
    <rc><c>Mg</c><c>   3</c></rc>
    <rc><c>Mg</c><c>   3</c></rc>
    <rc><c>Mg</c><c>   3</c></rc>
    <rc><c>Mg</c><c>   3</c></rc>
    <rc><c>Mg</c><c>   3</c></rc>
    <rc><c>Mg</c><c>   3</c></rc>
    <rc><c>Mg</c><c>   3</c></rc>
    <rc><c>Mg</c><c>   3</c></rc>
    <rc><c>Mg</c><c>   3</c></rc>
    <rc><c>Mg</c><c>   3</c></rc>
    <rc><c>Mg</c><c>   3</c></rc>
    <rc><c>Mg</c><c>   3</c></rc>
    <rc><c>Mg</c><c>   3</c></rc>
    <rc><c>Mg</c><c>   3</c></rc>
    <rc><c>Mg</c><c>   3</c></rc>
    <rc><c>Mg</c><c>   3</c></rc>
    <rc><c>Mg</c><c>   3</c></rc>
    <rc><c>Mg</c><c>   3</c></rc>
    <rc><c>Mg</c><c>   3</c></rc>
    <rc><c>Mg</c><c>   3</c></rc>
    <rc><c>Mg</c><c>   3</c></rc>
    <rc><c>Mg</c><c>   3</c></rc>
    <rc><c>Mg</c><c>   3</c></rc>
    <rc><c>Mg</c><c>   3</c></rc>
    <rc><c>Mg</c><c>   3</c></rc>
    <rc><c>Mg</c><c>   3</c></rc>
   </set>
  </array>
  <array name="atomtypes" >
   <dimension dim="1">type</dimension>
   <field type="int">atomspertype</field>
   <field type="string">element</field>
   <field>mass</field>
   <field>valence</field>
   <field type="string">pseudopotential</field>
   <set>
    <rc><c>   1</c><c>Sn</c><c>    118.71000000</c><c>      4.00000000</c><c>  PAW_PBE Sn 08Apr2002                  </c></rc>
    <rc><c>  31</c><c>Si</c><c>     28.08500000</c><c>      4.00000000</c><c>  PAW_PBE Si 05Jan2001                  </c></rc>
    <rc><c>  64</c><c>Mg</c><c>     24.30500000</c><c>      2.00000000</c><c>  PAW_PBE Mg 13Apr2007                  </c></rc>
   </set>
  </array>
 </atominfo>
 <structure name="initialpos" >
  <crystal>
   <varray name="basis" >
    <v>      12.74739769       0.00000000       0.00000000 </v>
    <v>       0.00000000      12.74739769       0.00000000 </v>
    <v>       0.00000000       0.00000000      12.74739769 </v>
   </varray>
   <i name="volume">   2071.40301882 </i>
   <varray name="rec_basis" >
    <v>       0.07844738       0.00000000       0.00000000 </v>
    <v>       0.00000000       0.07844738       0.00000000 </v>
    <v>       0.00000000       0.00000000       0.07844738 </v>
   </varray>
  </crystal>
  <varray name="positions" >
   <v>       0.00000000       0.00000000       0.00000000 </v>
   <v>       0.50000000       0.00000000       0.00000000 </v>
   <v>       0.00000000       0.50000000       0.00000000 </v>
   <v>       0.50000000       0.50000000       0.00000000 </v>
   <v>       0.00000000       0.00000000       0.50000000 </v>
   <v>       0.50000000       0.00000000       0.50000000 </v>
   <v>       0.00000000       0.50000000       0.50000000 </v>
   <v>       0.50000000       0.50000000       0.50000000 </v>
   <v>       0.25140293       0.25140293       0.00000000 </v>
   <v>       0.74859707       0.25140293       0.00000000 </v>
   <v>       0.25140293       0.74859707       0.00000000 </v>
   <v>       0.74859707       0.74859707       0.00000000 </v>
   <v>       0.25012668       0.25012668       0.50000000 </v>
   <v>       0.74987332       0.25012668       0.50000000 </v>
   <v>       0.25012668       0.74987332       0.50000000 </v>
   <v>       0.74987332       0.74987332       0.50000000 </v>
   <v>       0.25140293       0.00000000       0.25140293 </v>
   <v>       0.74859707       0.00000000       0.25140293 </v>
   <v>       0.25012668       0.50000000       0.25012668 </v>
   <v>       0.74987332       0.50000000       0.25012668 </v>
   <v>       0.25140293       0.00000000       0.74859707 </v>
   <v>       0.74859707       0.00000000       0.74859707 </v>
   <v>       0.25012668       0.50000000       0.74987332 </v>
   <v>       0.74987332       0.50000000       0.74987332 </v>
   <v>       0.00000000       0.25140293       0.25140293 </v>
   <v>       0.50000000       0.25012668       0.25012668 </v>
   <v>       0.00000000       0.74859707       0.25140293 </v>
   <v>       0.50000000       0.74987332       0.25012668 </v>
   <v>       0.00000000       0.25140293       0.74859707 </v>
   <v>       0.50000000       0.25012668       0.74987332 </v>
   <v>       0.00000000       0.74859707       0.74859707 </v>
   <v>       0.50000000       0.74987332       0.74987332 </v>
   <v>       0.12882388       0.12960836       0.12960836 </v>
   <v>       0.62421357       0.12507203       0.12507203 </v>
   <v>       0.12507203       0.62421357       0.12507203 </v>
   <v>       0.62455273       0.62455273       0.12469540 </v>
   <v>       0.12507203       0.12507203       0.62421357 </v>
   <v>       0.62455273       0.12469540       0.62455273 </v>
   <v>       0.12469540       0.62455273       0.62455273 </v>
   <v>       0.62508239       0.62508239       0.62508239 </v>
   <v>       0.37578643       0.12507203       0.12507203 </v>
   <v>       0.87039164       0.12960836       0.12960836 </v>
   <v>       0.37544727       0.62455273       0.12469540 </v>
   <v>       0.87492797       0.62421357       0.12507203 </v>
   <v>       0.37544727       0.12469540       0.62455273 </v>
   <v>       0.87492797       0.12507203       0.62421357 </v>
   <v>       0.37491761       0.62508239       0.62508239 </v>
   <v>       0.87530460       0.62455273       0.62455273 </v>
   <v>       0.12507203       0.37578643       0.12507203 </v>
   <v>       0.62455273       0.37544727       0.12469540 </v>
   <v>       0.12960836       0.87039164       0.12960836 </v>
   <v>       0.62421357       0.87492797       0.12507203 </v>
   <v>       0.12469540       0.37544727       0.62455273 </v>
   <v>       0.62508239       0.37491761       0.62508239 </v>
   <v>       0.12507203       0.87492797       0.62421357 </v>
   <v>       0.62455273       0.87530460       0.62455273 </v>
   <v>       0.37544727       0.37544727       0.12469540 </v>
   <v>       0.87492797       0.37578643       0.12507203 </v>
   <v>       0.37578643       0.87492797       0.12507203 </v>
   <v>       0.87039164       0.87039164       0.12960836 </v>
   <v>       0.37491761       0.37491761       0.62508239 </v>
   <v>       0.87530460       0.37544727       0.62455273 </v>
   <v>       0.37544727       0.87530460       0.62455273 </v>
   <v>       0.87492797       0.87492797       0.62421357 </v>
   <v>       0.12507203       0.12507203       0.37578643 </v>
   <v>       0.62455273       0.12469540       0.37544727 </v>
   <v>       0.12469540       0.62455273       0.37544727 </v>
   <v>       0.62508239       0.62508239       0.37491761 </v>
   <v>       0.12960836       0.12960836       0.87039164 </v>
   <v>       0.62421357       0.12507203       0.87492797 </v>
   <v>       0.12507203       0.62421357       0.87492797 </v>
   <v>       0.62455273       0.62455273       0.87530460 </v>
   <v>       0.37544727       0.12469540       0.37544727 </v>
   <v>       0.87492797       0.12507203       0.37578643 </v>
   <v>       0.37491761       0.62508239       0.37491761 </v>
   <v>       0.87530460       0.62455273       0.37544727 </v>
   <v>       0.37578643       0.12507203       0.87492797 </v>
   <v>       0.87039164       0.12960836       0.87039164 </v>
   <v>       0.37544727       0.62455273       0.87530460 </v>
   <v>       0.87492797       0.62421357       0.87492797 </v>
   <v>       0.12469540       0.37544727       0.37544727 </v>
   <v>       0.62508239       0.37491761       0.37491761 </v>
   <v>       0.12507203       0.87492797       0.37578643 </v>
   <v>       0.62455273       0.87530460       0.37544727 </v>
   <v>       0.12507203       0.37578643       0.87492797 </v>
   <v>       0.62455273       0.37544727       0.87530460 </v>
   <v>       0.12960836       0.87039164       0.87039164 </v>
   <v>       0.62421357       0.87492797       0.87492797 </v>
   <v>       0.37491761       0.37491761       0.37491761 </v>
   <v>       0.87530460       0.37544727       0.37544727 </v>
   <v>       0.37544727       0.87530460       0.37544727 </v>
   <v>       0.87492797       0.87492797       0.37578643 </v>
   <v>       0.37544727       0.37544727       0.87530460 </v>
   <v>       0.87492797       0.37578643       0.87492797 </v>
   <v>       0.37578643       0.87492797       0.87492797 </v>
   <v>       0.87039164       0.87039164       0.87039164 </v>
  </varray>
 </structure>
 <calculation>
  <scstep>
   <time name="dav">   13.50   13.53</time>
   <time name="total">   14.31   14.35</time>
   <energy>
    <i name="alphaZ">    214.09658884 </i>
    <i name="ewald">  -5218.84405171 </i>
    <i name="hartreedc">   -333.01770226 </i>
    <i name="XCdc">  -3539.85052307 </i>
    <i name="pawpsdc">   7100.88161447 </i>
    <i name="pawaedc">  -3112.42095010 </i>
    <i name="eentropy">     -0.00000000 </i>
    <i name="bandstr">    447.64586430 </i>
    <i name="atom">   4763.39200965 </i>
    <i name="e_fr_energy">    321.88285011 </i>
    <i name="e_wo_entrp">    321.88285011 </i>
    <i name="e_0_energy">    321.88285011 </i>
   </energy>
  </scstep>
  <scstep>
   <time name="dav">   15.64   15.67</time>
   <time name="total">   15.64   15.67</time>
   <energy>
    <i name="e_fr_energy">   -253.38009828 </i>
    <i name="e_wo_entrp">   -253.38009828 </i>
    <i name="e_0_energy">   -253.38009828 </i>
   </energy>
  </scstep>
  <scstep>
   <time name="dav">   15.70   15.73</time>
   <time name="total">   15.70   15.73</time>
   <energy>
    <i name="e_fr_energy">   -296.45498138 </i>
    <i name="e_wo_entrp">   -296.45498138 </i>
    <i name="e_0_energy">   -296.45498138 </i>
   </energy>
  </scstep>
  <scstep>
   <time name="dav">   15.47   15.50</time>
   <time name="total">   15.47   15.50</time>
   <energy>
    <i name="e_fr_energy">   -297.34091891 </i>
    <i name="e_wo_entrp">   -297.34091891 </i>
    <i name="e_0_energy">   -297.34091891 </i>
   </energy>
  </scstep>
  <scstep>
   <time name="dav">   15.70   15.73</time>
   <time name="total">   16.11   16.14</time>
   <energy>
    <i name="e_fr_energy">   -297.36473840 </i>
    <i name="e_wo_entrp">   -297.36473840 </i>
    <i name="e_0_energy">   -297.36473840 </i>
   </energy>
  </scstep>
  <scstep>
   <time name="dav">   13.54   13.57</time>
   <time name="total">   14.75   14.78</time>
   <energy>
    <i name="e_fr_energy">   -280.24009885 </i>
    <i name="e_wo_entrp">   -280.24009885 </i>
    <i name="e_0_energy">   -280.24009885 </i>
   </energy>
  </scstep>
  <scstep>
   <time name="dav">   14.40   14.43</time>
   <time name="total">   15.62   15.64</time>
   <energy>
    <i name="e_fr_energy">   -277.76435841 </i>
    <i name="e_wo_entrp">   -277.76435837 </i>
    <i name="e_0_energy">   -277.76435839 </i>
   </energy>
  </scstep>
  <scstep>
   <time name="dav">   14.53   14.56</time>
   <time name="total">   15.74   15.77</time>
   <energy>
    <i name="e_fr_energy">   -277.76847753 </i>
    <i name="e_wo_entrp">   -277.76847753 </i>
    <i name="e_0_energy">   -277.76847753 </i>
   </energy>
  </scstep>
  <scstep>
   <time name="dav">   14.98   15.01</time>
   <time name="total">   16.21   16.23</time>
   <energy>
    <i name="e_fr_energy">   -277.76515021 </i>
    <i name="e_wo_entrp">   -277.76515021 </i>
    <i name="e_0_energy">   -277.76515021 </i>
   </energy>
  </scstep>
  <scstep>
   <time name="dav">   14.76   14.79</time>
   <time name="total">   15.98   16.01</time>
   <energy>
    <i name="e_fr_energy">   -277.76837336 </i>
    <i name="e_wo_entrp">   -277.76837336 </i>
    <i name="e_0_energy">   -277.76837336 </i>
   </energy>
  </scstep>
  <scstep>
   <time name="dav">   14.76   14.78</time>
   <time name="total">   15.96   15.99</time>
   <energy>
    <i name="e_fr_energy">   -277.76881448 </i>
    <i name="e_wo_entrp">   -277.76881448 </i>
    <i name="e_0_energy">   -277.76881448 </i>
   </energy>
  </scstep>
  <scstep>
   <time name="dav">   15.91   15.93</time>
   <time name="total">   17.11   17.14</time>
   <energy>
    <i name="e_fr_energy">   -277.76871516 </i>
    <i name="e_wo_entrp">   -277.76871516 </i>
    <i name="e_0_energy">   -277.76871516 </i>
   </energy>
  </scstep>
  <scstep>
   <time name="dav">   15.22   15.25</time>
   <time name="total">   16.43   16.45</time>
   <energy>
    <i name="e_fr_energy">   -277.76868871 </i>
    <i name="e_wo_entrp">   -277.76868871 </i>
    <i name="e_0_energy">   -277.76868871 </i>
   </energy>
  </scstep>
  <scstep>
   <time name="dav">   14.52   14.55</time>
   <time name="total">   15.72   15.75</time>
   <energy>
    <i name="e_fr_energy">   -277.76869497 </i>
    <i name="e_wo_entrp">   -277.76869497 </i>
    <i name="e_0_energy">   -277.76869497 </i>
   </energy>
  </scstep>
  <scstep>
   <time name="dav">   14.53   14.56</time>
   <time name="total">   15.73   15.76</time>
   <energy>
    <i name="e_fr_energy">   -277.76869463 </i>
    <i name="e_wo_entrp">   -277.76869463 </i>
    <i name="e_0_energy">   -277.76869463 </i>
   </energy>
  </scstep>
  <scstep>
   <time name="dav">   15.21   15.24</time>
   <time name="total">   16.42   16.45</time>
   <energy>
    <i name="e_fr_energy">   -277.76869485 </i>
    <i name="e_wo_entrp">   -277.76869485 </i>
    <i name="e_0_energy">   -277.76869485 </i>
   </energy>
  </scstep>
  <scstep>
   <time name="dav">   14.52   14.55</time>
   <time name="total">   15.73   15.75</time>
   <energy>
    <i name="e_fr_energy">   -277.76869506 </i>
    <i name="e_wo_entrp">   -277.76869506 </i>
    <i name="e_0_energy">   -277.76869506 </i>
   </energy>
  </scstep>
  <scstep>
   <time name="dav">   14.06   14.09</time>
   <time name="total">   15.27   15.30</time>
   <energy>
    <i name="e_fr_energy">   -277.76869503 </i>
    <i name="e_wo_entrp">   -277.76869503 </i>
    <i name="e_0_energy">   -277.76869503 </i>
   </energy>
  </scstep>
  <scstep>
   <time name="dav">   10.62   10.64</time>
   <time name="total">   11.83   11.85</time>
   <energy>
    <i name="e_fr_energy">   -277.76869507 </i>
    <i name="e_wo_entrp">   -277.76869507 </i>
    <i name="e_0_energy">   -277.76869507 </i>
   </energy>
  </scstep>
  <scstep>
   <time name="dav">    9.94    9.96</time>
   <time name="total">   11.15   11.17</time>
   <energy>
    <i name="e_fr_energy">   -277.76869509 </i>
    <i name="e_wo_entrp">   -277.76869509 </i>
    <i name="e_0_energy">   -277.76869509 </i>
   </energy>
  </scstep>
  <scstep>
   <time name="dav">    9.72    9.73</time>
   <time name="total">   10.51   10.53</time>
   <energy>
    <i name="alphaZ">    214.09658884 </i>
    <i name="ewald">  -5218.84405171 </i>
    <i name="hartreedc">   -486.11570582 </i>
    <i name="XCdc">  -3511.70788428 </i>
    <i name="pawpsdc">  17714.02007688 </i>
    <i name="pawaedc"> -13730.34222848 </i>
    <i name="eentropy">     -0.00000000 </i>
    <i name="bandstr">    -22.26750015 </i>
    <i name="atom">   4763.39200965 </i>
    <i name="e_fr_energy">   -277.76869508 </i>
    <i name="e_wo_entrp">   -277.76869508 </i>
    <i name="e_0_energy">   -277.76869508 </i>
   </energy>
  </scstep>
  <structure>
   <crystal>
    <varray name="basis" >
     <v>      12.74739769       0.00000000       0.00000000 </v>
     <v>       0.00000000      12.74739769       0.00000000 </v>
     <v>       0.00000000       0.00000000      12.74739769 </v>
    </varray>
    <i name="volume">   2071.40301882 </i>
    <varray name="rec_basis" >
     <v>       0.07844738       0.00000000       0.00000000 </v>
     <v>       0.00000000       0.07844738       0.00000000 </v>
     <v>       0.00000000       0.00000000       0.07844738 </v>
    </varray>
   </crystal>
   <varray name="positions" >
    <v>       0.00000000       0.00000000       0.00000000 </v>
    <v>       0.50000000       0.00000000       0.00000000 </v>
    <v>       0.00000000       0.50000000       0.00000000 </v>
    <v>       0.50000000       0.50000000       0.00000000 </v>
    <v>       0.00000000       0.00000000       0.50000000 </v>
    <v>       0.50000000       0.00000000       0.50000000 </v>
    <v>       0.00000000       0.50000000       0.50000000 </v>
    <v>       0.50000000       0.50000000       0.50000000 </v>
    <v>       0.25140293       0.25140293       0.00000000 </v>
    <v>       0.74859707       0.25140293       0.00000000 </v>
    <v>       0.25140293       0.74859707       0.00000000 </v>
    <v>       0.74859707       0.74859707       0.00000000 </v>
    <v>       0.25012668       0.25012668       0.50000000 </v>
    <v>       0.74987332       0.25012668       0.50000000 </v>
    <v>       0.25012668       0.74987332       0.50000000 </v>
    <v>       0.74987332       0.74987332       0.50000000 </v>
    <v>       0.25140293       0.00000000       0.25140293 </v>
    <v>       0.74859707       0.00000000       0.25140293 </v>
    <v>       0.25012668       0.50000000       0.25012668 </v>
    <v>       0.74987332       0.50000000       0.25012668 </v>
    <v>       0.25140293       0.00000000       0.74859707 </v>
    <v>       0.74859707       0.00000000       0.74859707 </v>
    <v>       0.25012668       0.50000000       0.74987332 </v>
    <v>       0.74987332       0.50000000       0.74987332 </v>
    <v>       0.00000000       0.25140293       0.25140293 </v>
    <v>       0.50000000       0.25012668       0.25012668 </v>
    <v>       0.00000000       0.74859707       0.25140293 </v>
    <v>       0.50000000       0.74987332       0.25012668 </v>
    <v>       0.00000000       0.25140293       0.74859707 </v>
    <v>       0.50000000       0.25012668       0.74987332 </v>
    <v>       0.00000000       0.74859707       0.74859707 </v>
    <v>       0.50000000       0.74987332       0.74987332 </v>
    <v>       0.12882388       0.12960836       0.12960836 </v>
    <v>       0.62421357       0.12507203       0.12507203 </v>
    <v>       0.12507203       0.62421357       0.12507203 </v>
    <v>       0.62455273       0.62455273       0.12469540 </v>
    <v>       0.12507203       0.12507203       0.62421357 </v>
    <v>       0.62455273       0.12469540       0.62455273 </v>
    <v>       0.12469540       0.62455273       0.62455273 </v>
    <v>       0.62508239       0.62508239       0.62508239 </v>
    <v>       0.37578643       0.12507203       0.12507203 </v>
    <v>       0.87039164       0.12960836       0.12960836 </v>
    <v>       0.37544727       0.62455273       0.12469540 </v>
    <v>       0.87492797       0.62421357       0.12507203 </v>
    <v>       0.37544727       0.12469540       0.62455273 </v>
    <v>       0.87492797       0.12507203       0.62421357 </v>
    <v>       0.37491761       0.62508239       0.62508239 </v>
    <v>       0.87530460       0.62455273       0.62455273 </v>
    <v>       0.12507203       0.37578643       0.12507203 </v>
    <v>       0.62455273       0.37544727       0.12469540 </v>
    <v>       0.12960836       0.87039164       0.12960836 </v>
    <v>       0.62421357       0.87492797       0.12507203 </v>
    <v>       0.12469540       0.37544727       0.62455273 </v>
    <v>       0.62508239       0.37491761       0.62508239 </v>
    <v>       0.12507203       0.87492797       0.62421357 </v>
    <v>       0.62455273       0.87530460       0.62455273 </v>
    <v>       0.37544727       0.37544727       0.12469540 </v>
    <v>       0.87492797       0.37578643       0.12507203 </v>
    <v>       0.37578643       0.87492797       0.12507203 </v>
    <v>       0.87039164       0.87039164       0.12960836 </v>
    <v>       0.37491761       0.37491761       0.62508239 </v>
    <v>       0.87530460       0.37544727       0.62455273 </v>
    <v>       0.37544727       0.87530460       0.62455273 </v>
    <v>       0.87492797       0.87492797       0.62421357 </v>
    <v>       0.12507203       0.12507203       0.37578643 </v>
    <v>       0.62455273       0.12469540       0.37544727 </v>
    <v>       0.12469540       0.62455273       0.37544727 </v>
    <v>       0.62508239       0.62508239       0.37491761 </v>
    <v>       0.12960836       0.12960836       0.87039164 </v>
    <v>       0.62421357       0.12507203       0.87492797 </v>
    <v>       0.12507203       0.62421357       0.87492797 </v>
    <v>       0.62455273       0.62455273       0.87530460 </v>
    <v>       0.37544727       0.12469540       0.37544727 </v>
    <v>       0.87492797       0.12507203       0.37578643 </v>
    <v>       0.37491761       0.62508239       0.37491761 </v>
    <v>       0.87530460       0.62455273       0.37544727 </v>
    <v>       0.37578643       0.12507203       0.87492797 </v>
    <v>       0.87039164       0.12960836       0.87039164 </v>
    <v>       0.37544727       0.62455273       0.87530460 </v>
    <v>       0.87492797       0.62421357       0.87492797 </v>
    <v>       0.12469540       0.37544727       0.37544727 </v>
    <v>       0.62508239       0.37491761       0.37491761 </v>
    <v>       0.12507203       0.87492797       0.37578643 </v>
    <v>       0.62455273       0.87530460       0.37544727 </v>
    <v>       0.12507203       0.37578643       0.87492797 </v>
    <v>       0.62455273       0.37544727       0.87530460 </v>
    <v>       0.12960836       0.87039164       0.87039164 </v>
    <v>       0.62421357       0.87492797       0.87492797 </v>
    <v>       0.37491761       0.37491761       0.37491761 </v>
    <v>       0.87530460       0.37544727       0.37544727 </v>
    <v>       0.37544727       0.87530460       0.37544727 </v>
    <v>       0.87492797       0.87492797       0.37578643 </v>
    <v>       0.37544727       0.37544727       0.87530460 </v>
    <v>       0.87492797       0.37578643       0.87492797 </v>
    <v>       0.37578643       0.87492797       0.87492797 </v>
    <v>       0.87039164       0.87039164       0.87039164 </v>
   </varray>
  </structure>
  <varray name="forces" >
   <v>      -0.00772542      -0.00660293      -0.00660246 </v>
   <v>       0.00068304      -0.00019820      -0.00019825 </v>
   <v>      -0.00061005       0.00008873       0.00048538 </v>
   <v>       0.00058347       0.00044448       0.00024239 </v>
   <v>      -0.00061001       0.00048530       0.00008879 </v>
   <v>       0.00058341       0.00024240       0.00044450 </v>
   <v>      -0.00030685      -0.00047959      -0.00047961 </v>
   <v>       0.00021390       0.00005529       0.00005522 </v>
   <v>      -0.00026455       0.00245293       0.00383758 </v>
   <v>      -0.00569333       0.00600227       0.00025150 </v>
   <v>       0.00571263      -0.00635012      -0.00043353 </v>
   <v>      -0.00579273      -0.00607269      -0.00017961 </v>
   <v>      -0.00406851      -0.00311280      -0.00005691 </v>
   <v>       0.00403898      -0.00334926      -0.00038146 </v>
   <v>      -0.00375442       0.00275368       0.00063395 </v>
   <v>       0.00364055       0.00339575       0.00000264 </v>
   <v>      -0.00026463       0.00383715       0.00245310 </v>
   <v>      -0.00569325       0.00025151       0.00600197 </v>
   <v>      -0.00406844      -0.00005693      -0.00311273 </v>
   <v>       0.00403891      -0.00038145      -0.00334924 </v>
   <v>       0.00571258      -0.00043355      -0.00634987 </v>
   <v>      -0.00579273      -0.00017921      -0.00607284 </v>
   <v>      -0.00375433       0.00063399       0.00275363 </v>
   <v>       0.00364049       0.00000271       0.00339569 </v>
   <v>      -0.00698309       0.01081922       0.01081937 </v>
   <v>       0.00073779      -0.00321721      -0.00321725 </v>
   <v>      -0.00056396      -0.00642243       0.00587933 </v>
   <v>       0.00065421       0.00307632      -0.00361295 </v>
   <v>      -0.00056397       0.00587952      -0.00642216 </v>
   <v>       0.00065422      -0.00361295       0.00307640 </v>
   <v>      -0.00021882      -0.00571140      -0.00571164 </v>
   <v>       0.00026527       0.00345613       0.00345608 </v>
   <v>       0.02820166      -0.01327658      -0.01327649 </v>
   <v>      -0.00205768       0.00053281       0.00053273 </v>
   <v>       0.00059924      -0.00157371       0.00053552 </v>
   <v>      -0.00051152      -0.00046705      -0.00036323 </v>
   <v>       0.00059951       0.00053598      -0.00157418 </v>
   <v>      -0.00051152      -0.00036284      -0.00046754 </v>
   <v>       0.00126251      -0.00046795      -0.00046831 </v>
   <v>      -0.00106169      -0.00089293      -0.00089338 </v>
   <v>      -0.00954648       0.00072911       0.00072924 </v>
   <v>       0.00759738      -0.01474905      -0.01474891 </v>
   <v>       0.00044883      -0.00048521      -0.00035019 </v>
   <v>      -0.00055440      -0.00157036       0.00053229 </v>
   <v>       0.00044887      -0.00035062      -0.00048488 </v>
   <v>      -0.00055467       0.00053183      -0.00156992 </v>
   <v>       0.00015762      -0.00089891      -0.00089839 </v>
   <v>      -0.00033061      -0.00048303      -0.00048260 </v>
   <v>       0.00327450       0.00172114      -0.00074729 </v>
   <v>      -0.00075496       0.00046070       0.00000971 </v>
   <v>      -0.01254197       0.01476242      -0.01342660 </v>
   <v>      -0.00183885      -0.00052572       0.00018895 </v>
   <v>       0.00024790       0.00046819      -0.00012528 </v>
   <v>      -0.00097175       0.00089665      -0.00097010 </v>
   <v>       0.00113807      -0.00053363      -0.00191195 </v>
   <v>      -0.00053771       0.00035592      -0.00038272 </v>
   <v>      -0.00048429      -0.00054160      -0.00099261 </v>
   <v>      -0.00152469       0.00260163      -0.00018658 </v>
   <v>       0.00058225       0.00051253       0.00120658 </v>
   <v>       0.01394206       0.01385642      -0.01428290 </v>
   <v>       0.00063476       0.00123018      -0.00075863 </v>
   <v>       0.00010191       0.00013438      -0.00034601 </v>
   <v>       0.00020768       0.00001608      -0.00060625 </v>
   <v>      -0.00079749      -0.00018022      -0.00169356 </v>
   <v>       0.00327424      -0.00074768       0.00172159 </v>
   <v>      -0.00075494       0.00000919       0.00046114 </v>
   <v>       0.00024787      -0.00012577       0.00046863 </v>
   <v>      -0.00097179      -0.00097050       0.00089709 </v>
   <v>      -0.01254198      -0.01342654       0.01476235 </v>
   <v>      -0.00183889       0.00018866      -0.00052557 </v>
   <v>       0.00113840      -0.00191240      -0.00053319 </v>
   <v>      -0.00053767      -0.00038313       0.00035629 </v>
   <v>      -0.00048426      -0.00099221      -0.00054195 </v>
   <v>      -0.00152448      -0.00018613       0.00260118 </v>
   <v>       0.00063485      -0.00075819       0.00122972 </v>
   <v>       0.00010191      -0.00034559       0.00013398 </v>
   <v>       0.00058226       0.00120679       0.00051234 </v>
   <v>       0.01394210      -0.01428288       0.01385623 </v>
   <v>       0.00020757      -0.00060579       0.00001559 </v>
   <v>      -0.00079776      -0.00169313      -0.00018063 </v>
   <v>       0.00163851       0.00115551       0.00115513 </v>
   <v>      -0.00108731       0.00075153       0.00075111 </v>
   <v>       0.00257245       0.00015654       0.00086985 </v>
   <v>      -0.00066856       0.00020830       0.00060098 </v>
   <v>       0.00257219       0.00087031       0.00015596 </v>
   <v>      -0.00066858       0.00060145       0.00020779 </v>
   <v>      -0.01307794       0.01428035       0.01428034 </v>
   <v>      -0.00174533      -0.00040135      -0.00040149 </v>
   <v>       0.00105071       0.00079354       0.00079402 </v>
   <v>      -0.00161396       0.00094744       0.00094792 </v>
   <v>      -0.00154825       0.00077301       0.00002887 </v>
   <v>      -0.00035647      -0.00062238       0.00166122 </v>
   <v>      -0.00154831       0.00002846       0.00077339 </v>
   <v>      -0.00035614       0.00166077      -0.00062206 </v>
   <v>       0.00174376      -0.00043240      -0.00043225 </v>
   <v>       0.01312098       0.01457101       0.01457088 </v>
  </varray>
  <varray name="stress" >
   <v>      -1.02538565       0.00332304       0.00332281 </v>
   <v>       0.00332307      -1.01468307       0.01446335 </v>
   <v>       0.00332303       0.01446298      -1.01468330 </v>
  </varray>
  <energy>
   <i name="e_fr_energy">   -277.76869508 </i>
   <i name="e_wo_entrp">   -277.76869508 </i>
   <i name="e_0_energy">     -0.00000000 </i>
  </energy>
  <time name="totalsc">  351.49  352.39</time>
  <eigenvalues>
   <array>
    <dimension dim="1">band</dimension>
    <dimension dim="2">kpoint</dimension>
    <dimension dim="3">spin</dimension>
    <field>eigene</field>
    <field>occ</field>
    <set>
     <set comment="spin 1">
      <set comment="kpoint 1">
       <r>   -5.4895    1.0000 </r>
       <r>   -4.7781    1.0000 </r>
       <r>   -4.7778    1.0000 </r>
       <r>   -4.7693    1.0000 </r>
       <r>   -4.7687    1.0000 </r>
       <r>   -4.7681    1.0000 </r>
       <r>   -4.7414    1.0000 </r>
       <r>   -4.2066    1.0000 </r>
       <r>   -4.2065    1.0000 </r>
       <r>   -4.2007    1.0000 </r>
       <r>   -4.2002    1.0000 </r>
       <r>   -4.1996    1.0000 </r>
       <r>   -4.1957    1.0000 </r>
       <r>   -4.1946    1.0000 </r>
       <r>   -4.1945    1.0000 </r>
       <r>   -4.1860    1.0000 </r>
       <r>   -4.1852    1.0000 </r>
       <r>   -4.1845    1.0000 </r>
       <r>   -4.1427    1.0000 </r>
       <r>   -4.0666    1.0000 </r>
       <r>   -4.0656    1.0000 </r>
       <r>   -4.0654    1.0000 </r>
       <r>   -4.0506    1.0000 </r>
       <r>   -3.5081    1.0000 </r>
       <r>   -3.5073    1.0000 </r>
       <r>   -3.4981    1.0000 </r>
       <r>   -3.4676    1.0000 </r>
       <r>   -3.4672    1.0000 </r>
       <r>   -3.4604    1.0000 </r>
       <r>   -3.4601    1.0000 </r>
       <r>   -3.4593    1.0000 </r>
       <r>   -3.3923    1.0000 </r>
       <r>   -1.1924    1.0000 </r>
       <r>   -1.1585    1.0000 </r>
       <r>   -1.1583    1.0000 </r>
       <r>   -1.1575    1.0000 </r>
       <r>   -0.8439    1.0000 </r>
       <r>   -0.8439    1.0000 </r>
       <r>   -0.8439    1.0000 </r>
       <r>   -0.0452    1.0000 </r>
       <r>   -0.0444    1.0000 </r>
       <r>   -0.0433    1.0000 </r>
       <r>   -0.0339    1.0000 </r>
       <r>   -0.0336    1.0000 </r>
       <r>   -0.0336    1.0000 </r>
       <r>   -0.0257    1.0000 </r>
       <r>   -0.0253    1.0000 </r>
       <r>   -0.0252    1.0000 </r>
       <r>   -0.0004    1.0000 </r>
       <r>   -0.0003    1.0000 </r>
       <r>    0.0002    1.0000 </r>
       <r>    0.0105    1.0000 </r>
       <r>    0.0106    1.0000 </r>
       <r>    0.0111    1.0000 </r>
       <r>    0.0111    1.0000 </r>
       <r>    0.0118    1.0000 </r>
       <r>    0.0141    1.0000 </r>
       <r>    0.0146    1.0000 </r>
       <r>    0.0147    1.0000 </r>
       <r>    0.0520    1.0000 </r>
       <r>    0.0534    1.0000 </r>
       <r>    0.0537    1.0000 </r>
       <r>    0.0683    1.0000 </r>
       <r>    0.7628    1.0000 </r>
       <r>    0.7632    1.0000 </r>
       <r>    0.7695    1.0000 </r>
       <r>    0.7834    1.0000 </r>
       <r>    0.7841    1.0000 </r>
       <r>    0.7843    1.0000 </r>
       <r>    0.8007    1.0000 </r>
       <r>    0.8013    1.0000 </r>
       <r>    0.8016    1.0000 </r>
       <r>    0.8017    1.0000 </r>
       <r>    0.8023    1.0000 </r>
       <r>    0.8025    1.0000 </r>
       <r>    0.9187    1.0000 </r>
       <r>    0.9353    1.0000 </r>
       <r>    0.9355    1.0000 </r>
       <r>    0.9356    1.0000 </r>
       <r>    0.9576    1.0000 </r>
       <r>    0.9579    1.0000 </r>
       <r>    1.1734    1.0000 </r>
       <r>    1.1737    1.0000 </r>
       <r>    1.1737    1.0000 </r>
       <r>    1.1738    1.0000 </r>
       <r>    1.1742    1.0000 </r>
       <r>    1.2241    1.0000 </r>
       <r>    1.6499    1.0000 </r>
       <r>    1.6501    1.0000 </r>
       <r>    1.6502    1.0000 </r>
       <r>    1.6525    1.0000 </r>
       <r>    1.6527    1.0000 </r>
       <r>    1.6528    1.0000 </r>
       <r>    2.3241    1.0000 </r>
       <r>    2.3242    1.0000 </r>
       <r>    2.3247    1.0000 </r>
       <r>    2.3309    1.0000 </r>
       <r>    2.3312    1.0000 </r>
       <r>    2.3312    1.0000 </r>
       <r>    2.3314    1.0000 </r>
       <r>    2.3315    1.0000 </r>
       <r>    2.3319    1.0000 </r>
       <r>    2.3807    1.0000 </r>
       <r>    2.3809    1.0000 </r>
       <r>    2.3813    1.0000 </r>
       <r>    2.7669    1.0000 </r>
       <r>    2.7670    1.0000 </r>
       <r>    2.7677    1.0000 </r>
       <r>    2.7791    1.0000 </r>
       <r>    2.7793    1.0000 </r>
       <r>    2.7797    1.0000 </r>
       <r>    2.7880    1.0000 </r>
       <r>    2.7947    1.0000 </r>
       <r>    2.7957    1.0000 </r>
       <r>    2.8221    1.0000 </r>
       <r>    2.8223    1.0000 </r>
       <r>    2.8223    1.0000 </r>
       <r>    2.8684    1.0000 </r>
       <r>    2.8690    1.0000 </r>
       <r>    2.8943    1.0000 </r>
       <r>    2.8948    1.0000 </r>
       <r>    2.8956    1.0000 </r>
       <r>    2.9772    1.0000 </r>
       <r>    2.9784    1.0000 </r>
       <r>    2.9793    1.0000 </r>
       <r>    3.6206    1.0000 </r>
       <r>    3.6211    1.0000 </r>
       <r>    3.6214    1.0000 </r>
       <r>    3.7512    0.0000 </r>
       <r>    3.7925    0.0000 </r>
       <r>    3.7933    0.0000 </r>
       <r>    3.9521    0.0000 </r>
       <r>    3.9522    0.0000 </r>
       <r>    3.9523    0.0000 </r>
       <r>    4.7271    0.0000 </r>
       <r>    4.7277    0.0000 </r>
       <r>    4.7588    0.0000 </r>
       <r>    4.7594    0.0000 </r>
       <r>    4.7594    0.0000 </r>
       <r>    4.7622    0.0000 </r>
       <r>    4.8104    0.0000 </r>
       <r>    4.8109    0.0000 </r>
       <r>    4.8109    0.0000 </r>
       <r>    4.8421    0.0000 </r>
       <r>    5.3097    0.0000 </r>
       <r>    5.3100    0.0000 </r>
       <r>    5.3107    0.0000 </r>
       <r>    5.3202    0.0000 </r>
       <r>    5.3205    0.0000 </r>
       <r>    5.3253    0.0000 </r>
       <r>    5.3253    0.0000 </r>
       <r>    5.3259    0.0000 </r>
       <r>    5.3337    0.0000 </r>
       <r>    5.3642    0.0000 </r>
       <r>    5.3650    0.0000 </r>
       <r>    5.3653    0.0000 </r>
       <r>    5.3724    0.0000 </r>
       <r>    5.3732    0.0000 </r>
       <r>    5.3737    0.0000 </r>
       <r>    5.3744    0.0000 </r>
       <r>    5.4330    0.0000 </r>
       <r>    5.4333    0.0000 </r>
       <r>    5.5269    0.0000 </r>
       <r>    6.0785    0.0000 </r>
       <r>    6.0787    0.0000 </r>
       <r>    6.0791    0.0000 </r>
       <r>    6.0998    0.0000 </r>
       <r>    6.1003    0.0000 </r>
       <r>    6.1009    0.0000 </r>
       <r>    6.1454    0.0000 </r>
       <r>    6.1458    0.0000 </r>
       <r>    6.1484    0.0000 </r>
       <r>    6.1491    0.0000 </r>
       <r>    6.1493    0.0000 </r>
       <r>    6.2467    0.0000 </r>
       <r>    6.2497    0.0000 </r>
       <r>    6.2577    0.0000 </r>
       <r>    6.2739    0.0000 </r>
      </set>
     </set>
    </set>
   </array>
  </eigenvalues>
  <separator name="orbital magnetization" >
   <v name="MAGDIPOLOUT">      0.00000000      0.00000000      0.00000000</v>
  </separator>
  <dos>
   <i name="efermi">      3.68107900 </i>
   <total>
    <array>
     <dimension dim="1">gridpoints</dimension>
     <dimension dim="2">spin</dimension>
     <field>energy</field>
     <field>total</field>
     <field>integrated</field>
     <set>
      <set comment="spin 1">
       <r>    -6.0777     0.0000     0.0000 </r>
       <r>    -6.0346     0.0000     0.0000 </r>
       <r>    -5.9915     0.0000     0.0000 </r>
       <r>    -5.9483     0.0000     0.0000 </r>
       <r>    -5.9052     0.0000     0.0000 </r>
       <r>    -5.8621     0.0000     0.0000 </r>
       <r>    -5.8189     0.0000     0.0000 </r>
       <r>    -5.7758     0.0000     0.0000 </r>
       <r>    -5.7327     0.0000     0.0000 </r>
       <r>    -5.6895     0.0000     0.0000 </r>
       <r>    -5.6464     0.0000     0.0000 </r>
       <r>    -5.6033     0.0000     0.0000 </r>
       <r>    -5.5601     0.0000     0.0000 </r>
       <r>    -5.5170     0.0024     0.0001 </r>
       <r>    -5.4739    45.7506     1.9735 </r>
       <r>    -5.4307     0.6154     2.0000 </r>
       <r>    -5.3876     0.0000     2.0000 </r>
       <r>    -5.3445     0.0000     2.0000 </r>
       <r>    -5.3013     0.0000     2.0000 </r>
       <r>    -5.2582     0.0000     2.0000 </r>
       <r>    -5.2151     0.0000     2.0000 </r>
       <r>    -5.1719     0.0000     2.0000 </r>
       <r>    -5.1288     0.0000     2.0000 </r>
       <r>    -5.0857     0.0000     2.0000 </r>
       <r>    -5.0425     0.0000     2.0000 </r>
       <r>    -4.9994     0.0000     2.0000 </r>
       <r>    -4.9563     0.0000     2.0000 </r>
       <r>    -4.9131     0.0000     2.0000 </r>
       <r>    -4.8700     0.0000     2.0000 </r>
       <r>    -4.8269     0.0000     2.0000 </r>
       <r>    -4.7837    21.4628     2.9257 </r>
       <r>    -4.7406   235.7029    13.0923 </r>
       <r>    -4.6975    21.0449    14.0000 </r>
       <r>    -4.6543     0.0000    14.0000 </r>
       <r>    -4.6112     0.0000    14.0000 </r>
       <r>    -4.5681     0.0000    14.0000 </r>
       <r>    -4.5249     0.0000    14.0000 </r>
       <r>    -4.4818     0.0000    14.0000 </r>
       <r>    -4.4387     0.0000    14.0000 </r>
       <r>    -4.3955     0.0000    14.0000 </r>
       <r>    -4.3524     0.0000    14.0000 </r>
       <r>    -4.3093     0.0000    14.0000 </r>
       <r>    -4.2661     0.0000    14.0000 </r>
       <r>    -4.2230     1.0101    14.0436 </r>
       <r>    -4.1799   475.0656    34.5345 </r>
       <r>    -4.1367    71.1169    37.6020 </r>
       <r>    -4.0936     9.2348    38.0003 </r>
       <r>    -4.0505   160.4924    44.9228 </r>
       <r>    -4.0073    24.9749    46.0000 </r>
       <r>    -3.9642     0.0000    46.0000 </r>
       <r>    -3.9211     0.0000    46.0000 </r>
       <r>    -3.8779     0.0000    46.0000 </r>
       <r>    -3.8348     0.0000    46.0000 </r>
       <r>    -3.7917     0.0000    46.0000 </r>
       <r>    -3.7485     0.0000    46.0000 </r>
       <r>    -3.7054     0.0000    46.0000 </r>
       <r>    -3.6623     0.0000    46.0000 </r>
       <r>    -3.6191     0.0000    46.0000 </r>
       <r>    -3.5760     0.0000    46.0000 </r>
       <r>    -3.5329     0.0174    46.0008 </r>
       <r>    -3.4897   133.0730    51.7406 </r>
       <r>    -3.4466   233.4913    61.8117 </r>
       <r>    -3.4035     7.0112    62.1141 </r>
       <r>    -3.3604    43.7227    64.0000 </r>
       <r>    -3.3172     0.0001    64.0000 </r>
       <r>    -3.2741     0.0000    64.0000 </r>
       <r>    -3.2310     0.0000    64.0000 </r>
       <r>    -3.1878     0.0000    64.0000 </r>
       <r>    -3.1447     0.0000    64.0000 </r>
       <r>    -3.1016     0.0000    64.0000 </r>
       <r>    -3.0584     0.0000    64.0000 </r>
       <r>    -3.0153     0.0000    64.0000 </r>
       <r>    -2.9722     0.0000    64.0000 </r>
       <r>    -2.9290     0.0000    64.0000 </r>
       <r>    -2.8859     0.0000    64.0000 </r>
       <r>    -2.8428     0.0000    64.0000 </r>
       <r>    -2.7996     0.0000    64.0000 </r>
       <r>    -2.7565     0.0000    64.0000 </r>
       <r>    -2.7134     0.0000    64.0000 </r>
       <r>    -2.6702     0.0000    64.0000 </r>
       <r>    -2.6271     0.0000    64.0000 </r>
       <r>    -2.5840     0.0000    64.0000 </r>
       <r>    -2.5408     0.0000    64.0000 </r>
       <r>    -2.4977     0.0000    64.0000 </r>
       <r>    -2.4546     0.0000    64.0000 </r>
       <r>    -2.4114     0.0000    64.0000 </r>
       <r>    -2.3683     0.0000    64.0000 </r>
       <r>    -2.3252     0.0000    64.0000 </r>
       <r>    -2.2820     0.0000    64.0000 </r>
       <r>    -2.2389     0.0000    64.0000 </r>
       <r>    -2.1958     0.0000    64.0000 </r>
       <r>    -2.1526     0.0000    64.0000 </r>
       <r>    -2.1095     0.0000    64.0000 </r>
       <r>    -2.0664     0.0000    64.0000 </r>
       <r>    -2.0232     0.0000    64.0000 </r>
       <r>    -1.9801     0.0000    64.0000 </r>
       <r>    -1.9370     0.0000    64.0000 </r>
       <r>    -1.8938     0.0000    64.0000 </r>
       <r>    -1.8507     0.0000    64.0000 </r>
       <r>    -1.8076     0.0000    64.0000 </r>
       <r>    -1.7644     0.0000    64.0000 </r>
       <r>    -1.7213     0.0000    64.0000 </r>
       <r>    -1.6782     0.0000    64.0000 </r>
       <r>    -1.6350     0.0000    64.0000 </r>
       <r>    -1.5919     0.0000    64.0000 </r>
       <r>    -1.5488     0.0000    64.0000 </r>
       <r>    -1.5056     0.0000    64.0000 </r>
       <r>    -1.4625     0.0000    64.0000 </r>
       <r>    -1.4194     0.0000    64.0000 </r>
       <r>    -1.3762     0.0000    64.0000 </r>
       <r>    -1.3331     0.0000    64.0000 </r>
       <r>    -1.2900     0.0000    64.0000 </r>
       <r>    -1.2468     0.0000    64.0000 </r>
       <r>    -1.2037     2.5373    64.1094 </r>
       <r>    -1.1606    94.3344    68.1783 </r>
       <r>    -1.1174    88.6020    72.0000 </r>
       <r>    -1.0743     0.0000    72.0000 </r>
       <r>    -1.0312     0.0000    72.0000 </r>
       <r>    -0.9880     0.0000    72.0000 </r>
       <r>    -0.9449     0.0000    72.0000 </r>
       <r>    -0.9018     0.0000    72.0000 </r>
       <r>    -0.8586     2.5791    72.1112 </r>
       <r>    -0.8155   136.5220    77.9998 </r>
       <r>    -0.7724     0.0041    78.0000 </r>
       <r>    -0.7293     0.0000    78.0000 </r>
       <r>    -0.6861     0.0000    78.0000 </r>
       <r>    -0.6430     0.0000    78.0000 </r>
       <r>    -0.5999     0.0000    78.0000 </r>
       <r>    -0.5567     0.0000    78.0000 </r>
       <r>    -0.5136     0.0000    78.0000 </r>
       <r>    -0.4705     0.0000    78.0000 </r>
       <r>    -0.4273     0.0000    78.0000 </r>
       <r>    -0.3842     0.0000    78.0000 </r>
       <r>    -0.3411     0.0000    78.0000 </r>
       <r>    -0.2979     0.0000    78.0000 </r>
       <r>    -0.2548     0.0000    78.0000 </r>
       <r>    -0.2117     0.0000    78.0000 </r>
       <r>    -0.1685     0.0000    78.0000 </r>
       <r>    -0.1254     0.0000    78.0000 </r>
       <r>    -0.0823     0.0000    78.0000 </r>
       <r>    -0.0391   141.0894    84.0856 </r>
       <r>     0.0040   424.0549   102.3763 </r>
       <r>     0.0471   390.6679   119.2269 </r>
       <r>     0.0903   156.9870   125.9981 </r>
       <r>     0.1334     0.0430   126.0000 </r>
       <r>     0.1765     0.0000   126.0000 </r>
       <r>     0.2197     0.0000   126.0000 </r>
       <r>     0.2628     0.0000   126.0000 </r>
       <r>     0.3059     0.0000   126.0000 </r>
       <r>     0.3491     0.0000   126.0000 </r>
       <r>     0.3922     0.0000   126.0000 </r>
       <r>     0.4353     0.0000   126.0000 </r>
       <r>     0.4785     0.0000   126.0000 </r>
       <r>     0.5216     0.0000   126.0000 </r>
       <r>     0.5647     0.0000   126.0000 </r>
       <r>     0.6079     0.0000   126.0000 </r>
       <r>     0.6510     0.0000   126.0000 </r>
       <r>     0.6941     0.0000   126.0000 </r>
       <r>     0.7373     0.0131   126.0006 </r>
       <r>     0.7804   179.0548   133.7237 </r>
       <r>     0.8235   377.0643   149.9875 </r>
       <r>     0.8667     0.2889   150.0000 </r>
       <r>     0.9098     4.7957   150.2069 </r>
       <r>     0.9529   202.7397   158.9516 </r>
       <r>     0.9961    70.6751   162.0000 </r>
       <r>     1.0392     0.0000   162.0000 </r>
       <r>     1.0823     0.0000   162.0000 </r>
       <r>     1.1255     0.0000   162.0000 </r>
       <r>     1.1686    54.0537   164.3315 </r>
       <r>     1.2117   179.6198   172.0790 </r>
       <r>     1.2549    44.5366   174.0000 </r>
       <r>     1.2980     0.0003   174.0000 </r>
       <r>     1.3411     0.0000   174.0000 </r>
       <r>     1.3843     0.0000   174.0000 </r>
       <r>     1.4274     0.0000   174.0000 </r>
       <r>     1.4705     0.0000   174.0000 </r>
       <r>     1.5137     0.0000   174.0000 </r>
       <r>     1.5568     0.0000   174.0000 </r>
       <r>     1.5999     0.0000   174.0000 </r>
       <r>     1.6431    34.4928   175.4878 </r>
       <r>     1.6862   243.7176   186.0000 </r>
       <r>     1.7293     0.0002   186.0000 </r>
       <r>     1.7725     0.0000   186.0000 </r>
       <r>     1.8156     0.0000   186.0000 </r>
       <r>     1.8587     0.0000   186.0000 </r>
       <r>     1.9019     0.0000   186.0000 </r>
       <r>     1.9450     0.0000   186.0000 </r>
       <r>     1.9881     0.0000   186.0000 </r>
       <r>     2.0312     0.0000   186.0000 </r>
       <r>     2.0744     0.0000   186.0000 </r>
       <r>     2.1175     0.0000   186.0000 </r>
       <r>     2.1606     0.0000   186.0000 </r>
       <r>     2.2038     0.0000   186.0000 </r>
       <r>     2.2469     0.0000   186.0000 </r>
       <r>     2.2900     0.0001   186.0000 </r>
       <r>     2.3332   291.8616   198.5888 </r>
       <r>     2.3763   161.0942   205.5373 </r>
       <r>     2.4194   103.4651   210.0000 </r>
       <r>     2.4626     0.0000   210.0000 </r>
       <r>     2.5057     0.0000   210.0000 </r>
       <r>     2.5488     0.0000   210.0000 </r>
       <r>     2.5920     0.0000   210.0000 </r>
       <r>     2.6351     0.0000   210.0000 </r>
       <r>     2.6782     0.0000   210.0000 </r>
       <r>     2.7214     0.0000   210.0000 </r>
       <r>     2.7645    51.5521   212.2236 </r>
       <r>     2.8076   364.6869   227.9536 </r>
       <r>     2.8508   140.6959   234.0222 </r>
       <r>     2.8939   153.7805   240.6551 </r>
       <r>     2.9370    77.5478   244.0000 </r>
       <r>     2.9802    84.1221   247.6284 </r>
       <r>     3.0233    54.9832   250.0000 </r>
       <r>     3.0664     0.0000   250.0000 </r>
       <r>     3.1096     0.0000   250.0000 </r>
       <r>     3.1527     0.0000   250.0000 </r>
       <r>     3.1958     0.0000   250.0000 </r>
       <r>     3.2390     0.0000   250.0000 </r>
       <r>     3.2821     0.0000   250.0000 </r>
       <r>     3.3252     0.0000   250.0000 </r>
       <r>     3.3684     0.0000   250.0000 </r>
       <r>     3.4115     0.0000   250.0000 </r>
       <r>     3.4546     0.0000   250.0000 </r>
       <r>     3.4978     0.0000   250.0000 </r>
       <r>     3.5409     0.0000   250.0000 </r>
       <r>     3.5840     0.0000   250.0000 </r>
       <r>     3.6272   112.1640   254.8379 </r>
       <r>     3.6703    26.9412   256.0000 </r>
       <r>     3.7134     0.0000   256.0000 </r>
       <r>     3.7566    35.9561   257.5509 </r>
       <r>     3.7997    87.4264   261.3218 </r>
       <r>     3.8428    15.7228   262.0000 </r>
       <r>     3.8860     0.0000   262.0000 </r>
       <r>     3.9291     0.0758   262.0033 </r>
       <r>     3.9722   138.7091   267.9862 </r>
       <r>     4.0154     0.3204   268.0000 </r>
       <r>     4.0585     0.0000   268.0000 </r>
       <r>     4.1016     0.0000   268.0000 </r>
       <r>     4.1448     0.0000   268.0000 </r>
       <r>     4.1879     0.0000   268.0000 </r>
       <r>     4.2310     0.0000   268.0000 </r>
       <r>     4.2742     0.0000   268.0000 </r>
       <r>     4.3173     0.0000   268.0000 </r>
       <r>     4.3604     0.0000   268.0000 </r>
       <r>     4.4036     0.0000   268.0000 </r>
       <r>     4.4467     0.0000   268.0000 </r>
       <r>     4.4898     0.0000   268.0000 </r>
       <r>     4.5330     0.0000   268.0000 </r>
       <r>     4.5761     0.0000   268.0000 </r>
       <r>     4.6192     0.0000   268.0000 </r>
       <r>     4.6624     0.0000   268.0000 </r>
       <r>     4.7055     0.0916   268.0040 </r>
       <r>     4.7486   103.1898   272.4548 </r>
       <r>     4.7917   175.4389   280.0220 </r>
       <r>     4.8349   145.7294   286.3077 </r>
       <r>     4.8780    39.2345   288.0000 </r>
       <r>     4.9211     0.0000   288.0000 </r>
       <r>     4.9643     0.0000   288.0000 </r>
       <r>     5.0074     0.0000   288.0000 </r>
       <r>     5.0505     0.0000   288.0000 </r>
       <r>     5.0937     0.0000   288.0000 </r>
       <r>     5.1368     0.0000   288.0000 </r>
       <r>     5.1799     0.0000   288.0000 </r>
       <r>     5.2231     0.0000   288.0000 </r>
       <r>     5.2662     0.0000   288.0000 </r>
       <r>     5.3093    70.4664   291.0394 </r>
       <r>     5.3525   352.5718   306.2468 </r>
       <r>     5.3956   318.6910   319.9929 </r>
       <r>     5.4387    72.9782   323.1406 </r>
       <r>     5.4819    19.9242   324.0000 </r>
       <r>     5.5250    18.3877   324.7931 </r>
       <r>     5.5681    27.9807   326.0000 </r>
       <r>     5.6113     0.0000   326.0000 </r>
       <r>     5.6544     0.0000   326.0000 </r>
       <r>     5.6975     0.0000   326.0000 </r>
       <r>     5.7407     0.0000   326.0000 </r>
       <r>     5.7838     0.0000   326.0000 </r>
       <r>     5.8269     0.0000   326.0000 </r>
       <r>     5.8701     0.0000   326.0000 </r>
       <r>     5.9132     0.0000   326.0000 </r>
       <r>     5.9563     0.0000   326.0000 </r>
       <r>     5.9995     0.0000   326.0000 </r>
       <r>     6.0426     0.0000   326.0000 </r>
       <r>     6.0857   119.2118   331.1419 </r>
       <r>     6.1289   160.1472   338.0495 </r>
       <r>     6.1720   230.6066   347.9962 </r>
       <r>     6.2151     0.0872   348.0000 </r>
       <r>     6.2583   110.2307   352.7546 </r>
       <r>     6.3014    75.2403   355.9999 </r>
       <r>     6.3445     0.0024   356.0000 </r>
       <r>     6.3877     0.0000   356.0000 </r>
       <r>     6.4308     0.0000   356.0000 </r>
       <r>     6.4739     0.0000   356.0000 </r>
       <r>     6.5171     0.0000   356.0000 </r>
       <r>     6.5602     0.0000   356.0000 </r>
       <r>     6.6033     0.0000   356.0000 </r>
       <r>     6.6465     0.0000   356.0000 </r>
       <r>     6.6896     0.0000   356.0000 </r>
       <r>     6.7327     0.0000   356.0000 </r>
       <r>     6.7759     0.0000   356.0000 </r>
       <r>     6.8190     0.0000   356.0000 </r>
       <r>     6.8621     0.0000   356.0000 </r>
      </set>
     </set>
    </array>
   </total>
  </dos>
 </calculation>
 <structure name="finalpos" >
  <crystal>
   <varray name="basis" >
    <v>      12.74739769       0.00000000       0.00000000 </v>
    <v>       0.00000000      12.74739769       0.00000000 </v>
    <v>       0.00000000       0.00000000      12.74739769 </v>
   </varray>
   <i name="volume">   2071.40301882 </i>
   <varray name="rec_basis" >
    <v>       0.07844738       0.00000000       0.00000000 </v>
    <v>       0.00000000       0.07844738       0.00000000 </v>
    <v>       0.00000000       0.00000000       0.07844738 </v>
   </varray>
  </crystal>
  <varray name="positions" >
   <v>       0.00000000       0.00000000       0.00000000 </v>
   <v>       0.50000000       0.00000000       0.00000000 </v>
   <v>       0.00000000       0.50000000       0.00000000 </v>
   <v>       0.50000000       0.50000000       0.00000000 </v>
   <v>       0.00000000       0.00000000       0.50000000 </v>
   <v>       0.50000000       0.00000000       0.50000000 </v>
   <v>       0.00000000       0.50000000       0.50000000 </v>
   <v>       0.50000000       0.50000000       0.50000000 </v>
   <v>       0.25140293       0.25140293       0.00000000 </v>
   <v>       0.74859707       0.25140293       0.00000000 </v>
   <v>       0.25140293       0.74859707       0.00000000 </v>
   <v>       0.74859707       0.74859707       0.00000000 </v>
   <v>       0.25012668       0.25012668       0.50000000 </v>
   <v>       0.74987332       0.25012668       0.50000000 </v>
   <v>       0.25012668       0.74987332       0.50000000 </v>
   <v>       0.74987332       0.74987332       0.50000000 </v>
   <v>       0.25140293       0.00000000       0.25140293 </v>
   <v>       0.74859707       0.00000000       0.25140293 </v>
   <v>       0.25012668       0.50000000       0.25012668 </v>
   <v>       0.74987332       0.50000000       0.25012668 </v>
   <v>       0.25140293       0.00000000       0.74859707 </v>
   <v>       0.74859707       0.00000000       0.74859707 </v>
   <v>       0.25012668       0.50000000       0.74987332 </v>
   <v>       0.74987332       0.50000000       0.74987332 </v>
   <v>       0.00000000       0.25140293       0.25140293 </v>
   <v>       0.50000000       0.25012668       0.25012668 </v>
   <v>       0.00000000       0.74859707       0.25140293 </v>
   <v>       0.50000000       0.74987332       0.25012668 </v>
   <v>       0.00000000       0.25140293       0.74859707 </v>
   <v>       0.50000000       0.25012668       0.74987332 </v>
   <v>       0.00000000       0.74859707       0.74859707 </v>
   <v>       0.50000000       0.74987332       0.74987332 </v>
   <v>       0.12882388       0.12960836       0.12960836 </v>
   <v>       0.62421357       0.12507203       0.12507203 </v>
   <v>       0.12507203       0.62421357       0.12507203 </v>
   <v>       0.62455273       0.62455273       0.12469540 </v>
   <v>       0.12507203       0.12507203       0.62421357 </v>
   <v>       0.62455273       0.12469540       0.62455273 </v>
   <v>       0.12469540       0.62455273       0.62455273 </v>
   <v>       0.62508239       0.62508239       0.62508239 </v>
   <v>       0.37578643       0.12507203       0.12507203 </v>
   <v>       0.87039164       0.12960836       0.12960836 </v>
   <v>       0.37544727       0.62455273       0.12469540 </v>
   <v>       0.87492797       0.62421357       0.12507203 </v>
   <v>       0.37544727       0.12469540       0.62455273 </v>
   <v>       0.87492797       0.12507203       0.62421357 </v>
   <v>       0.37491761       0.62508239       0.62508239 </v>
   <v>       0.87530460       0.62455273       0.62455273 </v>
   <v>       0.12507203       0.37578643       0.12507203 </v>
   <v>       0.62455273       0.37544727       0.12469540 </v>
   <v>       0.12960836       0.87039164       0.12960836 </v>
   <v>       0.62421357       0.87492797       0.12507203 </v>
   <v>       0.12469540       0.37544727       0.62455273 </v>
   <v>       0.62508239       0.37491761       0.62508239 </v>
   <v>       0.12507203       0.87492797       0.62421357 </v>
   <v>       0.62455273       0.87530460       0.62455273 </v>
   <v>       0.37544727       0.37544727       0.12469540 </v>
   <v>       0.87492797       0.37578643       0.12507203 </v>
   <v>       0.37578643       0.87492797       0.12507203 </v>
   <v>       0.87039164       0.87039164       0.12960836 </v>
   <v>       0.37491761       0.37491761       0.62508239 </v>
   <v>       0.87530460       0.37544727       0.62455273 </v>
   <v>       0.37544727       0.87530460       0.62455273 </v>
   <v>       0.87492797       0.87492797       0.62421357 </v>
   <v>       0.12507203       0.12507203       0.37578643 </v>
   <v>       0.62455273       0.12469540       0.37544727 </v>
   <v>       0.12469540       0.62455273       0.37544727 </v>
   <v>       0.62508239       0.62508239       0.37491761 </v>
   <v>       0.12960836       0.12960836       0.87039164 </v>
   <v>       0.62421357       0.12507203       0.87492797 </v>
   <v>       0.12507203       0.62421357       0.87492797 </v>
   <v>       0.62455273       0.62455273       0.87530460 </v>
   <v>       0.37544727       0.12469540       0.37544727 </v>
   <v>       0.87492797       0.12507203       0.37578643 </v>
   <v>       0.37491761       0.62508239       0.37491761 </v>
   <v>       0.87530460       0.62455273       0.37544727 </v>
   <v>       0.37578643       0.12507203       0.87492797 </v>
   <v>       0.87039164       0.12960836       0.87039164 </v>
   <v>       0.37544727       0.62455273       0.87530460 </v>
   <v>       0.87492797       0.62421357       0.87492797 </v>
   <v>       0.12469540       0.37544727       0.37544727 </v>
   <v>       0.62508239       0.37491761       0.37491761 </v>
   <v>       0.12507203       0.87492797       0.37578643 </v>
   <v>       0.62455273       0.87530460       0.37544727 </v>
   <v>       0.12507203       0.37578643       0.87492797 </v>
   <v>       0.62455273       0.37544727       0.87530460 </v>
   <v>       0.12960836       0.87039164       0.87039164 </v>
   <v>       0.62421357       0.87492797       0.87492797 </v>
   <v>       0.37491761       0.37491761       0.37491761 </v>
   <v>       0.87530460       0.37544727       0.37544727 </v>
   <v>       0.37544727       0.87530460       0.37544727 </v>
   <v>       0.87492797       0.87492797       0.37578643 </v>
   <v>       0.37544727       0.37544727       0.87530460 </v>
   <v>       0.87492797       0.37578643       0.87492797 </v>
   <v>       0.37578643       0.87492797       0.87492797 </v>
   <v>       0.87039164       0.87039164       0.87039164 </v>
  </varray>
 </structure>
</modeling>
