<?xml version="1.0" encoding="ISO-8859-1"?>
<modeling>
 <generator>
  <i name="program" type="string">vasp </i>
  <i name="version" type="string">5.4.4.18Apr17-6-g9f103f2a35  </i>
  <i name="subversion" type="string">(build Apr 28 2017 11:12:57) complex            parallel </i>
  <i name="platform" type="string">LinuxIFC </i>
  <i name="date" type="string">2018 06 27 </i>
  <i name="time" type="string">23:27:30 </i>
 </generator>
 <incar>
  <i type="string" name="PREC">accurate</i>
  <i type="int" name="IALGO">    38</i>
  <i type="int" name="IBRION">    -1</i>
  <i name="EDIFF">      0.00000001</i>
  <i type="int" name="ISYM">     0</i>
  <i name="ENCUT">    270.00000000</i>
  <i type="logical" name="LREAL"> F  </i>
  <i type="int" name="ISMEAR">     0</i>
  <i name="SIGMA">      0.01000000</i>
  <i type="logical" name="LWAVE"> F  </i>
  <i type="logical" name="LCHARG"> F  </i>
  <v type="int" name="KPOINT_BSE">    -1     0     0     0</v>
 </incar>
 <structure name="primitive_cell" >
  <crystal>
   <varray name="basis" >
    <v>      12.74739769       0.00000000       0.00000000 </v>
    <v>       0.00000000      12.74739769       0.00000000 </v>
    <v>       0.00000000       0.00000000      12.74739769 </v>
   </varray>
   <i name="volume">   2071.40301882 </i>
   <varray name="rec_basis" >
    <v>       0.07844738       0.00000000       0.00000000 </v>
    <v>       0.00000000       0.07844738       0.00000000 </v>
    <v>       0.00000000       0.00000000       0.07844738 </v>
   </varray>
  </crystal>
  <varray name="positions" >
   <v>       0.00000000       0.00000000       0.00000000 </v>
   <v>       0.12960836       0.12960836       0.12960836 </v>
   <v>      -0.12960836       0.12960836       0.12960836 </v>
   <v>       0.12960836      -0.12960836       0.12960836 </v>
   <v>      -0.12960836      -0.12960836       0.12960836 </v>
   <v>       0.12960836       0.12960836      -0.12960836 </v>
   <v>      -0.12960836       0.12960836      -0.12960836 </v>
   <v>       0.12960836      -0.12960836      -0.12960836 </v>
   <v>      -0.12960836      -0.12960836      -0.12960836 </v>
   <v>       0.25140293       0.25140293       0.00000000 </v>
   <v>      -0.25140293       0.25140293       0.00000000 </v>
   <v>       0.25140293      -0.25140293       0.00000000 </v>
   <v>      -0.25140293      -0.25140293       0.00000000 </v>
   <v>       0.25140293       0.00000000       0.25140293 </v>
   <v>      -0.25140293       0.00000000       0.25140293 </v>
   <v>       0.25140293       0.00000000      -0.25140293 </v>
   <v>      -0.25140293       0.00000000      -0.25140293 </v>
   <v>       0.00000000       0.25140293       0.25140293 </v>
   <v>       0.00000000      -0.25140293       0.25140293 </v>
   <v>       0.00000000       0.25140293      -0.25140293 </v>
   <v>       0.00000000      -0.25140293      -0.25140293 </v>
   <v>      -0.37578643       0.12507203       0.12507203 </v>
   <v>       0.12507203      -0.37578643       0.12507203 </v>
   <v>       0.12507203       0.12507203      -0.37578643 </v>
   <v>       0.37578643       0.12507203       0.12507203 </v>
   <v>      -0.12507203      -0.37578643       0.12507203 </v>
   <v>      -0.12507203       0.12507203      -0.37578643 </v>
   <v>       0.12507203       0.37578643       0.12507203 </v>
   <v>      -0.37578643      -0.12507203       0.12507203 </v>
   <v>       0.12507203      -0.12507203      -0.37578643 </v>
   <v>      -0.12507203       0.37578643       0.12507203 </v>
   <v>       0.37578643      -0.12507203       0.12507203 </v>
   <v>      -0.12507203      -0.12507203      -0.37578643 </v>
   <v>       0.12507203       0.12507203       0.37578643 </v>
   <v>      -0.37578643       0.12507203      -0.12507203 </v>
   <v>       0.12507203      -0.37578643      -0.12507203 </v>
   <v>      -0.12507203       0.12507203       0.37578643 </v>
   <v>       0.37578643       0.12507203      -0.12507203 </v>
   <v>      -0.12507203      -0.37578643      -0.12507203 </v>
   <v>       0.12507203      -0.12507203       0.37578643 </v>
   <v>       0.12507203       0.37578643      -0.12507203 </v>
   <v>      -0.37578643      -0.12507203      -0.12507203 </v>
   <v>      -0.12507203      -0.12507203       0.37578643 </v>
   <v>      -0.12507203       0.37578643      -0.12507203 </v>
   <v>       0.37578643      -0.12507203      -0.12507203 </v>
   <v>      -0.50000000       0.00000000       0.00000000 </v>
   <v>       0.00000000      -0.50000000       0.00000000 </v>
   <v>       0.00000000       0.00000000      -0.50000000 </v>
   <v>      -0.37544727      -0.37544727       0.12469540 </v>
   <v>      -0.37544727       0.12469540      -0.37544727 </v>
   <v>       0.12469540      -0.37544727      -0.37544727 </v>
   <v>       0.37544727      -0.37544727       0.12469540 </v>
   <v>       0.37544727       0.12469540      -0.37544727 </v>
   <v>      -0.12469540      -0.37544727      -0.37544727 </v>
   <v>      -0.37544727       0.37544727       0.12469540 </v>
   <v>       0.12469540       0.37544727      -0.37544727 </v>
   <v>      -0.37544727      -0.12469540      -0.37544727 </v>
   <v>       0.37544727       0.37544727       0.12469540 </v>
   <v>      -0.12469540       0.37544727      -0.37544727 </v>
   <v>       0.37544727      -0.12469540      -0.37544727 </v>
   <v>      -0.37544727       0.12469540       0.37544727 </v>
   <v>       0.12469540      -0.37544727       0.37544727 </v>
   <v>      -0.37544727      -0.37544727      -0.12469540 </v>
   <v>       0.37544727       0.12469540       0.37544727 </v>
   <v>      -0.12469540      -0.37544727       0.37544727 </v>
   <v>       0.37544727      -0.37544727      -0.12469540 </v>
   <v>       0.12469540       0.37544727       0.37544727 </v>
   <v>      -0.37544727      -0.12469540       0.37544727 </v>
   <v>      -0.37544727       0.37544727      -0.12469540 </v>
   <v>      -0.12469540       0.37544727       0.37544727 </v>
   <v>       0.37544727      -0.12469540       0.37544727 </v>
   <v>       0.37544727       0.37544727      -0.12469540 </v>
   <v>       0.25012668       0.25012668      -0.50000000 </v>
   <v>      -0.25012668       0.25012668      -0.50000000 </v>
   <v>       0.25012668      -0.25012668      -0.50000000 </v>
   <v>      -0.25012668      -0.25012668      -0.50000000 </v>
   <v>       0.25012668      -0.50000000       0.25012668 </v>
   <v>      -0.25012668      -0.50000000       0.25012668 </v>
   <v>       0.25012668      -0.50000000      -0.25012668 </v>
   <v>      -0.25012668      -0.50000000      -0.25012668 </v>
   <v>      -0.50000000       0.25012668       0.25012668 </v>
   <v>      -0.50000000      -0.25012668       0.25012668 </v>
   <v>      -0.50000000       0.25012668      -0.25012668 </v>
   <v>      -0.50000000      -0.25012668      -0.25012668 </v>
   <v>      -0.37491761      -0.37491761      -0.37491761 </v>
   <v>       0.37491761      -0.37491761      -0.37491761 </v>
   <v>      -0.37491761       0.37491761      -0.37491761 </v>
   <v>       0.37491761       0.37491761      -0.37491761 </v>
   <v>      -0.37491761      -0.37491761       0.37491761 </v>
   <v>       0.37491761      -0.37491761       0.37491761 </v>
   <v>      -0.37491761       0.37491761       0.37491761 </v>
   <v>       0.37491761       0.37491761       0.37491761 </v>
   <v>      -0.50000000      -0.50000000       0.00000000 </v>
   <v>      -0.50000000       0.00000000      -0.50000000 </v>
   <v>       0.00000000      -0.50000000      -0.50000000 </v>
   <v>      -0.49921553      -0.50000000      -0.50000000 </v>
  </varray>
 </structure>
 <varray name="primitive_index" >
  <v type="int" >        1 </v>
  <v type="int" >       33 </v>
  <v type="int" >       42 </v>
  <v type="int" >       51 </v>
  <v type="int" >       60 </v>
  <v type="int" >       69 </v>
  <v type="int" >       78 </v>
  <v type="int" >       87 </v>
  <v type="int" >       96 </v>
  <v type="int" >        9 </v>
  <v type="int" >       10 </v>
  <v type="int" >       11 </v>
  <v type="int" >       12 </v>
  <v type="int" >       17 </v>
  <v type="int" >       18 </v>
  <v type="int" >       21 </v>
  <v type="int" >       22 </v>
  <v type="int" >       25 </v>
  <v type="int" >       27 </v>
  <v type="int" >       29 </v>
  <v type="int" >       31 </v>
  <v type="int" >       34 </v>
  <v type="int" >       35 </v>
  <v type="int" >       37 </v>
  <v type="int" >       41 </v>
  <v type="int" >       44 </v>
  <v type="int" >       46 </v>
  <v type="int" >       49 </v>
  <v type="int" >       52 </v>
  <v type="int" >       55 </v>
  <v type="int" >       58 </v>
  <v type="int" >       59 </v>
  <v type="int" >       64 </v>
  <v type="int" >       65 </v>
  <v type="int" >       70 </v>
  <v type="int" >       71 </v>
  <v type="int" >       74 </v>
  <v type="int" >       77 </v>
  <v type="int" >       80 </v>
  <v type="int" >       83 </v>
  <v type="int" >       85 </v>
  <v type="int" >       88 </v>
  <v type="int" >       92 </v>
  <v type="int" >       94 </v>
  <v type="int" >       95 </v>
  <v type="int" >        2 </v>
  <v type="int" >        3 </v>
  <v type="int" >        5 </v>
  <v type="int" >       36 </v>
  <v type="int" >       38 </v>
  <v type="int" >       39 </v>
  <v type="int" >       43 </v>
  <v type="int" >       45 </v>
  <v type="int" >       48 </v>
  <v type="int" >       50 </v>
  <v type="int" >       53 </v>
  <v type="int" >       56 </v>
  <v type="int" >       57 </v>
  <v type="int" >       62 </v>
  <v type="int" >       63 </v>
  <v type="int" >       66 </v>
  <v type="int" >       67 </v>
  <v type="int" >       72 </v>
  <v type="int" >       73 </v>
  <v type="int" >       76 </v>
  <v type="int" >       79 </v>
  <v type="int" >       81 </v>
  <v type="int" >       84 </v>
  <v type="int" >       86 </v>
  <v type="int" >       90 </v>
  <v type="int" >       91 </v>
  <v type="int" >       93 </v>
  <v type="int" >       13 </v>
  <v type="int" >       14 </v>
  <v type="int" >       15 </v>
  <v type="int" >       16 </v>
  <v type="int" >       19 </v>
  <v type="int" >       20 </v>
  <v type="int" >       23 </v>
  <v type="int" >       24 </v>
  <v type="int" >       26 </v>
  <v type="int" >       28 </v>
  <v type="int" >       30 </v>
  <v type="int" >       32 </v>
  <v type="int" >       40 </v>
  <v type="int" >       47 </v>
  <v type="int" >       54 </v>
  <v type="int" >       61 </v>
  <v type="int" >       68 </v>
  <v type="int" >       75 </v>
  <v type="int" >       82 </v>
  <v type="int" >       89 </v>
  <v type="int" >        4 </v>
  <v type="int" >        6 </v>
  <v type="int" >        7 </v>
  <v type="int" >        8 </v>
 </varray>
 <kpoints>
  <generation param="Gamma">
   <v type="int" name="divisions">       1        1        1 </v>
   <v name="usershift">      0.00000000       0.00000000       0.00000000 </v>
   <v name="genvec1">      1.00000000       0.00000000       0.00000000 </v>
   <v name="genvec2">      0.00000000       1.00000000       0.00000000 </v>
   <v name="genvec3">      0.00000000       0.00000000       1.00000000 </v>
   <v name="shift">      0.00000000       0.00000000       0.00000000 </v>
  </generation>
  <varray name="kpointlist" >
   <v>       0.00000000       0.00000000       0.00000000 </v>
  </varray>
  <varray name="weights" >
   <v>       1.00000000 </v>
  </varray>
 </kpoints>
 <parameters>
  <separator name="general" >
   <i type="string" name="SYSTEM">unknown system</i>
   <i type="logical" name="LCOMPAT"> F  </i>
  </separator>
  <separator name="electronic" >
   <i type="string" name="PREC">accura</i>
   <i name="ENMAX">    270.00000000</i>
   <i name="ENAUG">    454.73400000</i>
   <i name="EDIFF">      0.00000001</i>
   <i type="int" name="IALGO">    38</i>
   <i type="int" name="IWAVPR">    10</i>
   <i type="int" name="NBANDS">   178</i>
   <i name="NELECT">    256.00000000</i>
   <i type="int" name="TURBO">     0</i>
   <i type="int" name="IRESTART">     0</i>
   <i type="int" name="NREBOOT">     0</i>
   <i type="int" name="NMIN">     0</i>
   <i name="EREF">      0.00000000</i>
   <separator name="electronic smearing" >
    <i type="int" name="ISMEAR">     0</i>
    <i name="SIGMA">      0.01000000</i>
    <i name="KSPACING">      0.50000000</i>
    <i type="logical" name="KGAMMA"> T  </i>
   </separator>
   <separator name="electronic projectors" >
    <i type="logical" name="LREAL"> F  </i>
    <v name="ROPT">      0.00000000      0.00000000      0.00000000</v>
    <i type="int" name="LMAXPAW">  -100</i>
    <i type="int" name="LMAXMIX">     2</i>
    <i type="logical" name="NLSPLINE"> F  </i>
   </separator>
   <separator name="electronic startup" >
    <i type="int" name="ISTART">     0</i>
    <i type="int" name="ICHARG">     2</i>
    <i type="int" name="INIWAV">     1</i>
   </separator>
   <separator name="electronic spin" >
    <i type="int" name="ISPIN">     1</i>
    <i type="logical" name="LNONCOLLINEAR"> F  </i>
    <v name="MAGMOM">      1.00000000      1.00000000      1.00000000      1.00000000      1.00000000      1.00000000      1.00000000      1.00000000      1.00000000      1.00000000      1.00000000      1.00000000      1.00000000      1.00000000      1.00000000      1.00000000      1.00000000      1.00000000      1.00000000      1.00000000
      1.00000000      1.00000000      1.00000000      1.00000000      1.00000000      1.00000000      1.00000000      1.00000000      1.00000000      1.00000000      1.00000000      1.00000000      1.00000000      1.00000000      1.00000000      1.00000000      1.00000000      1.00000000      1.00000000      1.00000000
      1.00000000      1.00000000      1.00000000      1.00000000      1.00000000      1.00000000      1.00000000      1.00000000      1.00000000      1.00000000      1.00000000      1.00000000      1.00000000      1.00000000      1.00000000      1.00000000      1.00000000      1.00000000      1.00000000      1.00000000
      1.00000000      1.00000000      1.00000000      1.00000000      1.00000000      1.00000000      1.00000000      1.00000000      1.00000000      1.00000000      1.00000000      1.00000000      1.00000000      1.00000000      1.00000000      1.00000000      1.00000000      1.00000000      1.00000000      1.00000000
      1.00000000      1.00000000      1.00000000      1.00000000      1.00000000      1.00000000      1.00000000      1.00000000      1.00000000      1.00000000      1.00000000      1.00000000      1.00000000      1.00000000      1.00000000      1.00000000</v>
    <i name="NUPDOWN">     -1.00000000</i>
    <i type="logical" name="LSORBIT"> F  </i>
    <v name="SAXIS">      0.00000000      0.00000000      1.00000000</v>
    <i type="logical" name="LSPIRAL"> F  </i>
    <v name="QSPIRAL">      0.00000000      0.00000000      0.00000000</v>
    <i type="logical" name="LZEROZ"> F  </i>
   </separator>
   <separator name="electronic exchange-correlation" >
    <i type="logical" name="LASPH"> F  </i>
    <i type="logical" name="LMETAGGA"> F  </i>
   </separator>
   <separator name="electronic convergence" >
    <i type="int" name="NELM">    60</i>
    <i type="int" name="NELMDL">    -5</i>
    <i type="int" name="NELMIN">     2</i>
    <i name="ENINI">    270.00000000</i>
    <separator name="electronic convergence detail" >
     <i type="logical" name="LDIAG"> T  </i>
     <i type="logical" name="LSUBROT"> F  </i>
     <i name="WEIMIN">      0.00000000</i>
     <i name="EBREAK">      0.00000000</i>
     <i name="DEPER">      0.30000000</i>
     <i type="int" name="NRMM">     4</i>
     <i name="TIME">      0.40000000</i>
    </separator>
   </separator>
   <separator name="electronic mixer" >
    <i name="AMIX">      0.40000000</i>
    <i name="BMIX">      1.00000000</i>
    <i name="AMIN">      0.10000000</i>
    <i name="AMIX_MAG">      1.60000000</i>
    <i name="BMIX_MAG">      1.00000000</i>
    <separator name="electronic mixer details" >
     <i type="int" name="IMIX">     4</i>
     <i type="logical" name="MIXFIRST"> F  </i>
     <i type="int" name="MAXMIX">   -45</i>
     <i name="WC">    100.00000000</i>
     <i type="int" name="INIMIX">     1</i>
     <i type="int" name="MIXPRE">     1</i>
     <i type="int" name="MREMOVE">     5</i>
    </separator>
   </separator>
   <separator name="electronic dipolcorrection" >
    <i type="logical" name="LDIPOL"> F  </i>
    <i type="logical" name="LMONO"> F  </i>
    <i type="int" name="IDIPOL">     0</i>
    <i name="EPSILON">      1.00000000</i>
    <v name="DIPOL">   -100.00000000   -100.00000000   -100.00000000</v>
    <i name="EFIELD">      0.00000000</i>
   </separator>
  </separator>
  <separator name="grids" >
   <i type="int" name="NGX">    70</i>
   <i type="int" name="NGY">    70</i>
   <i type="int" name="NGZ">    70</i>
   <i type="int" name="NGXF">   140</i>
   <i type="int" name="NGYF">   140</i>
   <i type="int" name="NGZF">   140</i>
   <i type="logical" name="ADDGRID"> F  </i>
  </separator>
  <separator name="ionic" >
   <i type="int" name="NSW">     0</i>
   <i type="int" name="IBRION">    -1</i>
   <i type="int" name="MDALGO">     0</i>
   <i type="int" name="ISIF">     2</i>
   <i name="PSTRESS">      0.00000000</i>
   <i name="EDIFFG">      0.00000010</i>
   <i type="int" name="NFREE">     0</i>
   <i name="POTIM">      0.50000000</i>
   <i name="SMASS">     -3.00000000</i>
   <i name="SCALEE">      1.00000000</i>
  </separator>
  <separator name="ionic md" >
   <i name="TEBEG">      0.00010000</i>
   <i name="TEEND">      0.00010000</i>
   <i type="int" name="NBLOCK">     1</i>
   <i type="int" name="KBLOCK">     1</i>
   <i type="int" name="NPACO">   256</i>
   <i name="APACO">     16.00000000</i>
  </separator>
  <separator name="symmetry" >
   <i type="int" name="ISYM">     0</i>
   <i name="SYMPREC">      0.00001000</i>
  </separator>
  <separator name="dos" >
   <i type="int" name="LORBIT">     0</i>
   <v name="RWIGS">     -1.00000000     -1.00000000     -1.00000000</v>
   <i type="int" name="NEDOS">   301</i>
   <i name="EMIN">     10.00000000</i>
   <i name="EMAX">    -10.00000000</i>
   <i name="EFERMI">      0.00000000</i>
  </separator>
  <separator name="writing" >
   <i type="int" name="NWRITE">     2</i>
   <i type="logical" name="LWAVE"> F  </i>
   <i type="logical" name="LDOWNSAMPLE"> F  </i>
   <i type="logical" name="LCHARG"> F  </i>
   <i type="logical" name="LPARD"> F  </i>
   <i type="logical" name="LVTOT"> F  </i>
   <i type="logical" name="LVHAR"> F  </i>
   <i type="logical" name="LELF"> F  </i>
   <i type="logical" name="LOPTICS"> F  </i>
   <v name="STM">      0.00000000      0.00000000      0.00000000      0.00000000      0.00000000      0.00000000      0.00000000</v>
  </separator>
  <separator name="performance" >
   <i type="int" name="NPAR">     2</i>
   <i type="int" name="NSIM">     4</i>
   <i type="int" name="NBLK">    -1</i>
   <i type="logical" name="LPLANE"> T  </i>
   <i type="logical" name="LSCALAPACK"> T  </i>
   <i type="logical" name="LSCAAWARE"> F  </i>
   <i type="logical" name="LSCALU"> F  </i>
   <i type="logical" name="LASYNC"> F  </i>
   <i type="logical" name="LORBITALREAL"> F  </i>
  </separator>
  <separator name="miscellaneous" >
   <i type="int" name="IDIOT">     3</i>
   <i type="int" name="ISPECIAL">     0</i>
   <i type="logical" name="LMUSIC"> F  </i>
   <v name="POMASS">    118.71000000     28.08500000     24.30500000</v>
   <v name="DARWINR">      0.00000000      0.00000000      0.00000000</v>
   <v name="DARWINV">      1.00000000      1.00000000      1.00000000</v>
   <i type="logical" name="LCORR"> T  </i>
  </separator>
  <i type="logical" name="GGA_COMPAT"> T  </i>
  <i type="logical" name="LBERRY"> F  </i>
  <i type="int" name="ICORELEVEL">     0</i>
  <i type="logical" name="LDAU"> F  </i>
  <i type="int" name="I_CONSTRAINED_M">     0</i>
  <separator name="electronic exchange-correlation" >
   <i type="string" name="GGA">--</i>
   <i type="int" name="VOSKOWN">     0</i>
   <i type="logical" name="LHFCALC"> F  </i>
   <i type="string" name="PRECFOCK"></i>
   <i type="logical" name="LSYMGRAD"> F  </i>
   <i type="logical" name="LHFONE"> F  </i>
   <i type="logical" name="LRHFCALC"> F  </i>
   <i type="logical" name="LTHOMAS"> F  </i>
   <i type="logical" name="LMODELHF"> F  </i>
   <i name="ENCUT4O">     -1.00000000</i>
   <i type="int" name="EXXOEP">     0</i>
   <i type="int" name="FOURORBIT">     0</i>
   <i name="AEXX">      0.00000000</i>
   <i name="HFALPHA">      0.00000000</i>
   <i name="MCALPHA">      0.00000000</i>
   <i name="ALDAX">      1.00000000</i>
   <i name="AGGAX">      1.00000000</i>
   <i name="ALDAC">      1.00000000</i>
   <i name="AGGAC">      1.00000000</i>
   <i type="int" name="NKREDX">     1</i>
   <i type="int" name="NKREDY">     1</i>
   <i type="int" name="NKREDZ">     1</i>
   <i type="logical" name="SHIFTRED"> F  </i>
   <i type="logical" name="ODDONLY"> F  </i>
   <i type="logical" name="EVENONLY"> F  </i>
   <i type="int" name="LMAXFOCK">     0</i>
   <i type="int" name="NMAXFOCKAE">     0</i>
   <i type="logical" name="LFOCKAEDFT"> F  </i>
   <i name="HFSCREEN">      0.00000000</i>
   <i name="HFSCREENC">      0.00000000</i>
   <i type="int" name="NBANDSGWLOW">     0</i>
  </separator>
  <separator name="vdW DFT" >
   <i type="logical" name="LUSE_VDW"> F  </i>
   <i name="Zab_VDW">     -0.84910000</i>
   <i name="PARAM1">      0.12340000</i>
   <i name="PARAM2">      1.00000000</i>
   <i name="PARAM3">      0.00000000</i>
  </separator>
  <separator name="model GW" >
   <i type="int" name="MODEL_GW">     0</i>
   <i name="MODEL_EPS0">     12.94626887</i>
   <i name="MODEL_ALPHA">      1.00000000</i>
  </separator>
  <separator name="linear response parameters" >
   <i type="logical" name="LEPSILON"> F  </i>
   <i type="logical" name="LRPA"> F  </i>
   <i type="logical" name="LNABLA"> F  </i>
   <i type="logical" name="LVEL"> F  </i>
   <i type="int" name="KINTER">     0</i>
   <i name="CSHIFT">      0.10000000</i>
   <i name="OMEGAMAX">     -1.00000000</i>
   <i name="DEG_THRESHOLD">      0.00200000</i>
   <i name="RTIME">     -0.10000000</i>
   <i name="WPLASMAI">      0.00000000</i>
   <v name="DFIELD">      0.00000000      0.00000000      0.00000000</v>
   <v name="WPLASMA">      0.00000000      0.00000000      0.00000000      0.00000000      0.00000000      0.00000000      0.00000000      0.00000000      0.00000000</v>
  </separator>
  <separator name="orbital magnetization" >
   <i type="logical" name="NUCIND"> F  </i>
   <v name="MAGPOS">      0.00000000      0.00000000      0.00000000</v>
   <i type="logical" name="LNICSALL"> T  </i>
   <i type="logical" name="ORBITALMAG"> F  </i>
   <i type="logical" name="LMAGBLOCH"> F  </i>
   <i type="logical" name="LCHIMAG"> F  </i>
   <i type="logical" name="LGAUGE"> T  </i>
   <i type="int" name="MAGATOM">     0</i>
   <v name="MAGDIPOL">      0.00000000      0.00000000      0.00000000</v>
   <v name="AVECCONST">      0.00000000      0.00000000      0.00000000</v>
  </separator>
  <separator name="response functions" >
   <i type="logical" name="LADDER"> F  </i>
   <i type="logical" name="LRPAFORCE"> F  </i>
   <i type="logical" name="LFXC"> F  </i>
   <i type="logical" name="LHARTREE"> T  </i>
   <i type="int" name="IBSE">     0</i>
   <v type="int" name="KPOINT">    -1     0     0     0</v>
   <i type="logical" name="LTCTE"> F  </i>
   <i type="logical" name="LTETE"> F  </i>
   <i type="logical" name="LTRIPLET"> F  </i>
   <i type="logical" name="LFXCEPS"> F  </i>
   <i type="logical" name="LFXHEG"> F  </i>
   <i type="int" name="NATURALO">     2</i>
   <i type="logical" name="L2ORDER"> F  </i>
   <i type="logical" name="LMP2LT"> F  </i>
   <i type="logical" name="LUSEW"> F  </i>
   <i name="ENCUTGW">     -2.00000000</i>
   <i name="ENCUTGWSOFT">     -2.00000000</i>
   <i name="ENCUTLF">     -1.00000000</i>
   <i type="int" name="LMAXMP2">    -1</i>
   <i name="SCISSOR">      0.00000000</i>
   <i type="int" name="NOMEGA">     0</i>
   <i type="int" name="NOMEGAR">     0</i>
   <i type="int" name="NBANDSGW">    -1</i>
   <i type="int" name="NBANDSO">    -1</i>
   <i type="int" name="NBANDSV">    -1</i>
   <i type="int" name="NELM">     1</i>
   <i type="int" name="NELMHF">     1</i>
   <i type="int" name="DIM">     3</i>
   <i type="int" name="ANTIRES">     0</i>
   <i name="OMEGAMAX">    -30.00000000</i>
   <i name="OMEGAMIN">    -30.00000000</i>
   <i name="OMEGATL">   -200.00000000</i>
   <i type="int" name="OMEGAGRID">   140</i>
   <i name="CSHIFT">     -0.10000000</i>
   <i type="logical" name="SELFENERGY"> F  </i>
   <i type="logical" name="LSPECTRAL"> F  </i>
   <i type="logical" name="LSPECTRALGW"> F  </i>
   <i type="logical" name="LSINGLES"> F  </i>
   <i type="logical" name="LFERMIGW"> F  </i>
   <i type="logical" name="ODDONLYGW"> F  </i>
   <i type="logical" name="EVENONLYGW"> F  </i>
   <i type="int" name="NKREDLFX">     1</i>
   <i type="int" name="NKREDLFY">     1</i>
   <i type="int" name="NKREDLFZ">     1</i>
   <i type="int" name="MAXMEM">  2800</i>
   <i type="int" name="TELESCOPE">     0</i>
   <i type="int" name="TAUPAR">     1</i>
   <i type="int" name="OMEGAPAR">    -1</i>
   <i name="LAMBDA">      1.00000000</i>
  </separator>
  <separator name="External order field" >
   <i name="OFIELD_KAPPA">      0.00000000</i>
   <v name="OFIELD_K">      0.00000000      0.00000000      0.00000000</v>
   <i name="OFIELD_Q6_NEAR">      0.00000000</i>
   <i name="OFIELD_Q6_FAR">      0.00000000</i>
   <i name="OFIELD_A">      0.00000000</i>
  </separator>
 </parameters>
 <atominfo>
  <atoms>      96 </atoms>
  <types>       3 </types>
  <array name="atoms" >
   <dimension dim="1">ion</dimension>
   <field type="string">element</field>
   <field type="int">atomtype</field>
   <set>
    <rc><c>Sn</c><c>   1</c></rc>
    <rc><c>Si</c><c>   2</c></rc>
    <rc><c>Si</c><c>   2</c></rc>
    <rc><c>Si</c><c>   2</c></rc>
    <rc><c>Si</c><c>   2</c></rc>
    <rc><c>Si</c><c>   2</c></rc>
    <rc><c>Si</c><c>   2</c></rc>
    <rc><c>Si</c><c>   2</c></rc>
    <rc><c>Si</c><c>   2</c></rc>
    <rc><c>Si</c><c>   2</c></rc>
    <rc><c>Si</c><c>   2</c></rc>
    <rc><c>Si</c><c>   2</c></rc>
    <rc><c>Si</c><c>   2</c></rc>
    <rc><c>Si</c><c>   2</c></rc>
    <rc><c>Si</c><c>   2</c></rc>
    <rc><c>Si</c><c>   2</c></rc>
    <rc><c>Si</c><c>   2</c></rc>
    <rc><c>Si</c><c>   2</c></rc>
    <rc><c>Si</c><c>   2</c></rc>
    <rc><c>Si</c><c>   2</c></rc>
    <rc><c>Si</c><c>   2</c></rc>
    <rc><c>Si</c><c>   2</c></rc>
    <rc><c>Si</c><c>   2</c></rc>
    <rc><c>Si</c><c>   2</c></rc>
    <rc><c>Si</c><c>   2</c></rc>
    <rc><c>Si</c><c>   2</c></rc>
    <rc><c>Si</c><c>   2</c></rc>
    <rc><c>Si</c><c>   2</c></rc>
    <rc><c>Si</c><c>   2</c></rc>
    <rc><c>Si</c><c>   2</c></rc>
    <rc><c>Si</c><c>   2</c></rc>
    <rc><c>Si</c><c>   2</c></rc>
    <rc><c>Mg</c><c>   3</c></rc>
    <rc><c>Mg</c><c>   3</c></rc>
    <rc><c>Mg</c><c>   3</c></rc>
    <rc><c>Mg</c><c>   3</c></rc>
    <rc><c>Mg</c><c>   3</c></rc>
    <rc><c>Mg</c><c>   3</c></rc>
    <rc><c>Mg</c><c>   3</c></rc>
    <rc><c>Mg</c><c>   3</c></rc>
    <rc><c>Mg</c><c>   3</c></rc>
    <rc><c>Mg</c><c>   3</c></rc>
    <rc><c>Mg</c><c>   3</c></rc>
    <rc><c>Mg</c><c>   3</c></rc>
    <rc><c>Mg</c><c>   3</c></rc>
    <rc><c>Mg</c><c>   3</c></rc>
    <rc><c>Mg</c><c>   3</c></rc>
    <rc><c>Mg</c><c>   3</c></rc>
    <rc><c>Mg</c><c>   3</c></rc>
    <rc><c>Mg</c><c>   3</c></rc>
    <rc><c>Mg</c><c>   3</c></rc>
    <rc><c>Mg</c><c>   3</c></rc>
    <rc><c>Mg</c><c>   3</c></rc>
    <rc><c>Mg</c><c>   3</c></rc>
    <rc><c>Mg</c><c>   3</c></rc>
    <rc><c>Mg</c><c>   3</c></rc>
    <rc><c>Mg</c><c>   3</c></rc>
    <rc><c>Mg</c><c>   3</c></rc>
    <rc><c>Mg</c><c>   3</c></rc>
    <rc><c>Mg</c><c>   3</c></rc>
    <rc><c>Mg</c><c>   3</c></rc>
    <rc><c>Mg</c><c>   3</c></rc>
    <rc><c>Mg</c><c>   3</c></rc>
    <rc><c>Mg</c><c>   3</c></rc>
    <rc><c>Mg</c><c>   3</c></rc>
    <rc><c>Mg</c><c>   3</c></rc>
    <rc><c>Mg</c><c>   3</c></rc>
    <rc><c>Mg</c><c>   3</c></rc>
    <rc><c>Mg</c><c>   3</c></rc>
    <rc><c>Mg</c><c>   3</c></rc>
    <rc><c>Mg</c><c>   3</c></rc>
    <rc><c>Mg</c><c>   3</c></rc>
    <rc><c>Mg</c><c>   3</c></rc>
    <rc><c>Mg</c><c>   3</c></rc>
    <rc><c>Mg</c><c>   3</c></rc>
    <rc><c>Mg</c><c>   3</c></rc>
    <rc><c>Mg</c><c>   3</c></rc>
    <rc><c>Mg</c><c>   3</c></rc>
    <rc><c>Mg</c><c>   3</c></rc>
    <rc><c>Mg</c><c>   3</c></rc>
    <rc><c>Mg</c><c>   3</c></rc>
    <rc><c>Mg</c><c>   3</c></rc>
    <rc><c>Mg</c><c>   3</c></rc>
    <rc><c>Mg</c><c>   3</c></rc>
    <rc><c>Mg</c><c>   3</c></rc>
    <rc><c>Mg</c><c>   3</c></rc>
    <rc><c>Mg</c><c>   3</c></rc>
    <rc><c>Mg</c><c>   3</c></rc>
    <rc><c>Mg</c><c>   3</c></rc>
    <rc><c>Mg</c><c>   3</c></rc>
    <rc><c>Mg</c><c>   3</c></rc>
    <rc><c>Mg</c><c>   3</c></rc>
    <rc><c>Mg</c><c>   3</c></rc>
    <rc><c>Mg</c><c>   3</c></rc>
    <rc><c>Mg</c><c>   3</c></rc>
    <rc><c>Mg</c><c>   3</c></rc>
   </set>
  </array>
  <array name="atomtypes" >
   <dimension dim="1">type</dimension>
   <field type="int">atomspertype</field>
   <field type="string">element</field>
   <field>mass</field>
   <field>valence</field>
   <field type="string">pseudopotential</field>
   <set>
    <rc><c>   1</c><c>Sn</c><c>    118.71000000</c><c>      4.00000000</c><c>  PAW_PBE Sn 08Apr2002                  </c></rc>
    <rc><c>  31</c><c>Si</c><c>     28.08500000</c><c>      4.00000000</c><c>  PAW_PBE Si 05Jan2001                  </c></rc>
    <rc><c>  64</c><c>Mg</c><c>     24.30500000</c><c>      2.00000000</c><c>  PAW_PBE Mg 13Apr2007                  </c></rc>
   </set>
  </array>
 </atominfo>
 <structure name="initialpos" >
  <crystal>
   <varray name="basis" >
    <v>      12.74739769       0.00000000       0.00000000 </v>
    <v>       0.00000000      12.74739769       0.00000000 </v>
    <v>       0.00000000       0.00000000      12.74739769 </v>
   </varray>
   <i name="volume">   2071.40301882 </i>
   <varray name="rec_basis" >
    <v>       0.07844738       0.00000000       0.00000000 </v>
    <v>       0.00000000       0.07844738       0.00000000 </v>
    <v>       0.00000000       0.00000000       0.07844738 </v>
   </varray>
  </crystal>
  <varray name="positions" >
   <v>       0.00000000       0.00000000       0.00000000 </v>
   <v>       0.50000000       0.00000000       0.00000000 </v>
   <v>       0.00000000       0.50000000       0.00000000 </v>
   <v>       0.50000000       0.50000000       0.00000000 </v>
   <v>       0.00000000       0.00000000       0.50000000 </v>
   <v>       0.50000000       0.00000000       0.50000000 </v>
   <v>       0.00000000       0.50000000       0.50000000 </v>
   <v>       0.50078447       0.50000000       0.50000000 </v>
   <v>       0.25140293       0.25140293       0.00000000 </v>
   <v>       0.74859707       0.25140293       0.00000000 </v>
   <v>       0.25140293       0.74859707       0.00000000 </v>
   <v>       0.74859707       0.74859707       0.00000000 </v>
   <v>       0.25012668       0.25012668       0.50000000 </v>
   <v>       0.74987332       0.25012668       0.50000000 </v>
   <v>       0.25012668       0.74987332       0.50000000 </v>
   <v>       0.74987332       0.74987332       0.50000000 </v>
   <v>       0.25140293       0.00000000       0.25140293 </v>
   <v>       0.74859707       0.00000000       0.25140293 </v>
   <v>       0.25012668       0.50000000       0.25012668 </v>
   <v>       0.74987332       0.50000000       0.25012668 </v>
   <v>       0.25140293       0.00000000       0.74859707 </v>
   <v>       0.74859707       0.00000000       0.74859707 </v>
   <v>       0.25012668       0.50000000       0.74987332 </v>
   <v>       0.74987332       0.50000000       0.74987332 </v>
   <v>       0.00000000       0.25140293       0.25140293 </v>
   <v>       0.50000000       0.25012668       0.25012668 </v>
   <v>       0.00000000       0.74859707       0.25140293 </v>
   <v>       0.50000000       0.74987332       0.25012668 </v>
   <v>       0.00000000       0.25140293       0.74859707 </v>
   <v>       0.50000000       0.25012668       0.74987332 </v>
   <v>       0.00000000       0.74859707       0.74859707 </v>
   <v>       0.50000000       0.74987332       0.74987332 </v>
   <v>       0.12960836       0.12960836       0.12960836 </v>
   <v>       0.62421357       0.12507203       0.12507203 </v>
   <v>       0.12507203       0.62421357       0.12507203 </v>
   <v>       0.62455273       0.62455273       0.12469540 </v>
   <v>       0.12507203       0.12507203       0.62421357 </v>
   <v>       0.62455273       0.12469540       0.62455273 </v>
   <v>       0.12469540       0.62455273       0.62455273 </v>
   <v>       0.62508239       0.62508239       0.62508239 </v>
   <v>       0.37578643       0.12507203       0.12507203 </v>
   <v>       0.87039164       0.12960836       0.12960836 </v>
   <v>       0.37544727       0.62455273       0.12469540 </v>
   <v>       0.87492797       0.62421357       0.12507203 </v>
   <v>       0.37544727       0.12469540       0.62455273 </v>
   <v>       0.87492797       0.12507203       0.62421357 </v>
   <v>       0.37491761       0.62508239       0.62508239 </v>
   <v>       0.87530460       0.62455273       0.62455273 </v>
   <v>       0.12507203       0.37578643       0.12507203 </v>
   <v>       0.62455273       0.37544727       0.12469540 </v>
   <v>       0.12960836       0.87039164       0.12960836 </v>
   <v>       0.62421357       0.87492797       0.12507203 </v>
   <v>       0.12469540       0.37544727       0.62455273 </v>
   <v>       0.62508239       0.37491761       0.62508239 </v>
   <v>       0.12507203       0.87492797       0.62421357 </v>
   <v>       0.62455273       0.87530460       0.62455273 </v>
   <v>       0.37544727       0.37544727       0.12469540 </v>
   <v>       0.87492797       0.37578643       0.12507203 </v>
   <v>       0.37578643       0.87492797       0.12507203 </v>
   <v>       0.87039164       0.87039164       0.12960836 </v>
   <v>       0.37491761       0.37491761       0.62508239 </v>
   <v>       0.87530460       0.37544727       0.62455273 </v>
   <v>       0.37544727       0.87530460       0.62455273 </v>
   <v>       0.87492797       0.87492797       0.62421357 </v>
   <v>       0.12507203       0.12507203       0.37578643 </v>
   <v>       0.62455273       0.12469540       0.37544727 </v>
   <v>       0.12469540       0.62455273       0.37544727 </v>
   <v>       0.62508239       0.62508239       0.37491761 </v>
   <v>       0.12960836       0.12960836       0.87039164 </v>
   <v>       0.62421357       0.12507203       0.87492797 </v>
   <v>       0.12507203       0.62421357       0.87492797 </v>
   <v>       0.62455273       0.62455273       0.87530460 </v>
   <v>       0.37544727       0.12469540       0.37544727 </v>
   <v>       0.87492797       0.12507203       0.37578643 </v>
   <v>       0.37491761       0.62508239       0.37491761 </v>
   <v>       0.87530460       0.62455273       0.37544727 </v>
   <v>       0.37578643       0.12507203       0.87492797 </v>
   <v>       0.87039164       0.12960836       0.87039164 </v>
   <v>       0.37544727       0.62455273       0.87530460 </v>
   <v>       0.87492797       0.62421357       0.87492797 </v>
   <v>       0.12469540       0.37544727       0.37544727 </v>
   <v>       0.62508239       0.37491761       0.37491761 </v>
   <v>       0.12507203       0.87492797       0.37578643 </v>
   <v>       0.62455273       0.87530460       0.37544727 </v>
   <v>       0.12507203       0.37578643       0.87492797 </v>
   <v>       0.62455273       0.37544727       0.87530460 </v>
   <v>       0.12960836       0.87039164       0.87039164 </v>
   <v>       0.62421357       0.87492797       0.87492797 </v>
   <v>       0.37491761       0.37491761       0.37491761 </v>
   <v>       0.87530460       0.37544727       0.37544727 </v>
   <v>       0.37544727       0.87530460       0.37544727 </v>
   <v>       0.87492797       0.87492797       0.37578643 </v>
   <v>       0.37544727       0.37544727       0.87530460 </v>
   <v>       0.87492797       0.37578643       0.87492797 </v>
   <v>       0.37578643       0.87492797       0.87492797 </v>
   <v>       0.87039164       0.87039164       0.87039164 </v>
  </varray>
 </structure>
 <calculation>
  <scstep>
   <time name="dav">   13.56   13.61</time>
   <time name="total">   14.40   14.45</time>
   <energy>
    <i name="alphaZ">    214.09658884 </i>
    <i name="ewald">  -5218.82793079 </i>
    <i name="hartreedc">   -333.03125265 </i>
    <i name="XCdc">  -3539.85008489 </i>
    <i name="pawpsdc">   7100.88161447 </i>
    <i name="pawaedc">  -3112.42095010 </i>
    <i name="eentropy">     -0.00000000 </i>
    <i name="bandstr">    447.64535982 </i>
    <i name="atom">   4763.39200965 </i>
    <i name="e_fr_energy">    321.88535434 </i>
    <i name="e_wo_entrp">    321.88535434 </i>
    <i name="e_0_energy">    321.88535434 </i>
   </energy>
  </scstep>
  <scstep>
   <time name="dav">   15.73   15.76</time>
   <time name="total">   15.73   15.76</time>
   <energy>
    <i name="e_fr_energy">   -253.38037894 </i>
    <i name="e_wo_entrp">   -253.38037894 </i>
    <i name="e_0_energy">   -253.38037894 </i>
   </energy>
  </scstep>
  <scstep>
   <time name="dav">   15.80   15.83</time>
   <time name="total">   15.80   15.83</time>
   <energy>
    <i name="e_fr_energy">   -296.45462998 </i>
    <i name="e_wo_entrp">   -296.45462998 </i>
    <i name="e_0_energy">   -296.45462998 </i>
   </energy>
  </scstep>
  <scstep>
   <time name="dav">   15.56   15.59</time>
   <time name="total">   15.56   15.59</time>
   <energy>
    <i name="e_fr_energy">   -297.34071239 </i>
    <i name="e_wo_entrp">   -297.34071239 </i>
    <i name="e_0_energy">   -297.34071239 </i>
   </energy>
  </scstep>
  <scstep>
   <time name="dav">   16.03   16.06</time>
   <time name="total">   16.44   16.47</time>
   <energy>
    <i name="e_fr_energy">   -297.36477686 </i>
    <i name="e_wo_entrp">   -297.36477686 </i>
    <i name="e_0_energy">   -297.36477686 </i>
   </energy>
  </scstep>
  <scstep>
   <time name="dav">   13.64   13.67</time>
   <time name="total">   14.86   14.89</time>
   <energy>
    <i name="e_fr_energy">   -280.23914425 </i>
    <i name="e_wo_entrp">   -280.23914425 </i>
    <i name="e_0_energy">   -280.23914425 </i>
   </energy>
  </scstep>
  <scstep>
   <time name="dav">   14.56   14.59</time>
   <time name="total">   15.79   15.82</time>
   <energy>
    <i name="e_fr_energy">   -277.76404165 </i>
    <i name="e_wo_entrp">   -277.76404159 </i>
    <i name="e_0_energy">   -277.76404162 </i>
   </energy>
  </scstep>
  <scstep>
   <time name="dav">   14.63   14.66</time>
   <time name="total">   15.86   15.88</time>
   <energy>
    <i name="e_fr_energy">   -277.76819200 </i>
    <i name="e_wo_entrp">   -277.76819200 </i>
    <i name="e_0_energy">   -277.76819200 </i>
   </energy>
  </scstep>
  <scstep>
   <time name="dav">   15.09   15.12</time>
   <time name="total">   16.31   16.34</time>
   <energy>
    <i name="e_fr_energy">   -277.76493493 </i>
    <i name="e_wo_entrp">   -277.76493493 </i>
    <i name="e_0_energy">   -277.76493493 </i>
   </energy>
  </scstep>
  <scstep>
   <time name="dav">   14.63   14.66</time>
   <time name="total">   15.85   15.88</time>
   <energy>
    <i name="e_fr_energy">   -277.76816125 </i>
    <i name="e_wo_entrp">   -277.76816125 </i>
    <i name="e_0_energy">   -277.76816125 </i>
   </energy>
  </scstep>
  <scstep>
   <time name="dav">   14.86   14.89</time>
   <time name="total">   16.07   16.10</time>
   <energy>
    <i name="e_fr_energy">   -277.76860164 </i>
    <i name="e_wo_entrp">   -277.76860164 </i>
    <i name="e_0_energy">   -277.76860164 </i>
   </energy>
  </scstep>
  <scstep>
   <time name="dav">   16.02   16.05</time>
   <time name="total">   17.23   17.26</time>
   <energy>
    <i name="e_fr_energy">   -277.76850104 </i>
    <i name="e_wo_entrp">   -277.76850104 </i>
    <i name="e_0_energy">   -277.76850104 </i>
   </energy>
  </scstep>
  <scstep>
   <time name="dav">   15.32   15.35</time>
   <time name="total">   16.53   16.56</time>
   <energy>
    <i name="e_fr_energy">   -277.76847437 </i>
    <i name="e_wo_entrp">   -277.76847437 </i>
    <i name="e_0_energy">   -277.76847437 </i>
   </energy>
  </scstep>
  <scstep>
   <time name="dav">   14.63   14.66</time>
   <time name="total">   15.84   15.87</time>
   <energy>
    <i name="e_fr_energy">   -277.76848098 </i>
    <i name="e_wo_entrp">   -277.76848098 </i>
    <i name="e_0_energy">   -277.76848098 </i>
   </energy>
  </scstep>
  <scstep>
   <time name="dav">   14.63   14.65</time>
   <time name="total">   15.84   15.87</time>
   <energy>
    <i name="e_fr_energy">   -277.76848040 </i>
    <i name="e_wo_entrp">   -277.76848040 </i>
    <i name="e_0_energy">   -277.76848040 </i>
   </energy>
  </scstep>
  <scstep>
   <time name="dav">   15.08   15.11</time>
   <time name="total">   16.29   17.17</time>
   <energy>
    <i name="e_fr_energy">   -277.76848068 </i>
    <i name="e_wo_entrp">   -277.76848068 </i>
    <i name="e_0_energy">   -277.76848068 </i>
   </energy>
  </scstep>
  <scstep>
   <time name="dav">   14.63   14.66</time>
   <time name="total">   15.84   15.87</time>
   <energy>
    <i name="e_fr_energy">   -277.76848088 </i>
    <i name="e_wo_entrp">   -277.76848088 </i>
    <i name="e_0_energy">   -277.76848088 </i>
   </energy>
  </scstep>
  <scstep>
   <time name="dav">   14.15   14.18</time>
   <time name="total">   15.36   15.39</time>
   <energy>
    <i name="e_fr_energy">   -277.76848085 </i>
    <i name="e_wo_entrp">   -277.76848085 </i>
    <i name="e_0_energy">   -277.76848085 </i>
   </energy>
  </scstep>
  <scstep>
   <time name="dav">   10.70   10.72</time>
   <time name="total">   11.93   11.95</time>
   <energy>
    <i name="e_fr_energy">   -277.76848089 </i>
    <i name="e_wo_entrp">   -277.76848089 </i>
    <i name="e_0_energy">   -277.76848089 </i>
   </energy>
  </scstep>
  <scstep>
   <time name="dav">   10.00   10.02</time>
   <time name="total">   11.21   11.24</time>
   <energy>
    <i name="e_fr_energy">   -277.76848091 </i>
    <i name="e_wo_entrp">   -277.76848091 </i>
    <i name="e_0_energy">   -277.76848091 </i>
   </energy>
  </scstep>
  <scstep>
   <time name="dav">    9.54    9.56</time>
   <time name="total">   10.76   10.77</time>
   <energy>
    <i name="e_fr_energy">   -277.76848090 </i>
    <i name="e_wo_entrp">   -277.76848090 </i>
    <i name="e_0_energy">   -277.76848090 </i>
   </energy>
  </scstep>
  <scstep>
   <time name="dav">    9.95    9.97</time>
   <time name="total">   10.74   10.77</time>
   <energy>
    <i name="alphaZ">    214.09658884 </i>
    <i name="ewald">  -5218.82793079 </i>
    <i name="hartreedc">   -486.12808043 </i>
    <i name="XCdc">  -3511.70762968 </i>
    <i name="pawpsdc">  17714.25134254 </i>
    <i name="pawaedc"> -13730.57314435 </i>
    <i name="eentropy">     -0.00000000 </i>
    <i name="bandstr">    -22.27163667 </i>
    <i name="atom">   4763.39200965 </i>
    <i name="e_fr_energy">   -277.76848089 </i>
    <i name="e_wo_entrp">   -277.76848089 </i>
    <i name="e_0_energy">   -277.76848089 </i>
   </energy>
  </scstep>
  <structure>
   <crystal>
    <varray name="basis" >
     <v>      12.74739769       0.00000000       0.00000000 </v>
     <v>       0.00000000      12.74739769       0.00000000 </v>
     <v>       0.00000000       0.00000000      12.74739769 </v>
    </varray>
    <i name="volume">   2071.40301882 </i>
    <varray name="rec_basis" >
     <v>       0.07844738       0.00000000       0.00000000 </v>
     <v>       0.00000000       0.07844738       0.00000000 </v>
     <v>       0.00000000       0.00000000       0.07844738 </v>
    </varray>
   </crystal>
   <varray name="positions" >
    <v>       0.00000000       0.00000000       0.00000000 </v>
    <v>       0.50000000       0.00000000       0.00000000 </v>
    <v>       0.00000000       0.50000000       0.00000000 </v>
    <v>       0.50000000       0.50000000       0.00000000 </v>
    <v>       0.00000000       0.00000000       0.50000000 </v>
    <v>       0.50000000       0.00000000       0.50000000 </v>
    <v>       0.00000000       0.50000000       0.50000000 </v>
    <v>       0.50078447       0.50000000       0.50000000 </v>
    <v>       0.25140293       0.25140293       0.00000000 </v>
    <v>       0.74859707       0.25140293       0.00000000 </v>
    <v>       0.25140293       0.74859707       0.00000000 </v>
    <v>       0.74859707       0.74859707       0.00000000 </v>
    <v>       0.25012668       0.25012668       0.50000000 </v>
    <v>       0.74987332       0.25012668       0.50000000 </v>
    <v>       0.25012668       0.74987332       0.50000000 </v>
    <v>       0.74987332       0.74987332       0.50000000 </v>
    <v>       0.25140293       0.00000000       0.25140293 </v>
    <v>       0.74859707       0.00000000       0.25140293 </v>
    <v>       0.25012668       0.50000000       0.25012668 </v>
    <v>       0.74987332       0.50000000       0.25012668 </v>
    <v>       0.25140293       0.00000000       0.74859707 </v>
    <v>       0.74859707       0.00000000       0.74859707 </v>
    <v>       0.25012668       0.50000000       0.74987332 </v>
    <v>       0.74987332       0.50000000       0.74987332 </v>
    <v>       0.00000000       0.25140293       0.25140293 </v>
    <v>       0.50000000       0.25012668       0.25012668 </v>
    <v>       0.00000000       0.74859707       0.25140293 </v>
    <v>       0.50000000       0.74987332       0.25012668 </v>
    <v>       0.00000000       0.25140293       0.74859707 </v>
    <v>       0.50000000       0.25012668       0.74987332 </v>
    <v>       0.00000000       0.74859707       0.74859707 </v>
    <v>       0.50000000       0.74987332       0.74987332 </v>
    <v>       0.12960836       0.12960836       0.12960836 </v>
    <v>       0.62421357       0.12507203       0.12507203 </v>
    <v>       0.12507203       0.62421357       0.12507203 </v>
    <v>       0.62455273       0.62455273       0.12469540 </v>
    <v>       0.12507203       0.12507203       0.62421357 </v>
    <v>       0.62455273       0.12469540       0.62455273 </v>
    <v>       0.12469540       0.62455273       0.62455273 </v>
    <v>       0.62508239       0.62508239       0.62508239 </v>
    <v>       0.37578643       0.12507203       0.12507203 </v>
    <v>       0.87039164       0.12960836       0.12960836 </v>
    <v>       0.37544727       0.62455273       0.12469540 </v>
    <v>       0.87492797       0.62421357       0.12507203 </v>
    <v>       0.37544727       0.12469540       0.62455273 </v>
    <v>       0.87492797       0.12507203       0.62421357 </v>
    <v>       0.37491761       0.62508239       0.62508239 </v>
    <v>       0.87530460       0.62455273       0.62455273 </v>
    <v>       0.12507203       0.37578643       0.12507203 </v>
    <v>       0.62455273       0.37544727       0.12469540 </v>
    <v>       0.12960836       0.87039164       0.12960836 </v>
    <v>       0.62421357       0.87492797       0.12507203 </v>
    <v>       0.12469540       0.37544727       0.62455273 </v>
    <v>       0.62508239       0.37491761       0.62508239 </v>
    <v>       0.12507203       0.87492797       0.62421357 </v>
    <v>       0.62455273       0.87530460       0.62455273 </v>
    <v>       0.37544727       0.37544727       0.12469540 </v>
    <v>       0.87492797       0.37578643       0.12507203 </v>
    <v>       0.37578643       0.87492797       0.12507203 </v>
    <v>       0.87039164       0.87039164       0.12960836 </v>
    <v>       0.37491761       0.37491761       0.62508239 </v>
    <v>       0.87530460       0.37544727       0.62455273 </v>
    <v>       0.37544727       0.87530460       0.62455273 </v>
    <v>       0.87492797       0.87492797       0.62421357 </v>
    <v>       0.12507203       0.12507203       0.37578643 </v>
    <v>       0.62455273       0.12469540       0.37544727 </v>
    <v>       0.12469540       0.62455273       0.37544727 </v>
    <v>       0.62508239       0.62508239       0.37491761 </v>
    <v>       0.12960836       0.12960836       0.87039164 </v>
    <v>       0.62421357       0.12507203       0.87492797 </v>
    <v>       0.12507203       0.62421357       0.87492797 </v>
    <v>       0.62455273       0.62455273       0.87530460 </v>
    <v>       0.37544727       0.12469540       0.37544727 </v>
    <v>       0.87492797       0.12507203       0.37578643 </v>
    <v>       0.37491761       0.62508239       0.37491761 </v>
    <v>       0.87530460       0.62455273       0.37544727 </v>
    <v>       0.37578643       0.12507203       0.87492797 </v>
    <v>       0.87039164       0.12960836       0.87039164 </v>
    <v>       0.37544727       0.62455273       0.87530460 </v>
    <v>       0.87492797       0.62421357       0.87492797 </v>
    <v>       0.12469540       0.37544727       0.37544727 </v>
    <v>       0.62508239       0.37491761       0.37491761 </v>
    <v>       0.12507203       0.87492797       0.37578643 </v>
    <v>       0.62455273       0.87530460       0.37544727 </v>
    <v>       0.12507203       0.37578643       0.87492797 </v>
    <v>       0.62455273       0.37544727       0.87530460 </v>
    <v>       0.12960836       0.87039164       0.87039164 </v>
    <v>       0.62421357       0.87492797       0.87492797 </v>
    <v>       0.37491761       0.37491761       0.37491761 </v>
    <v>       0.87530460       0.37544727       0.37544727 </v>
    <v>       0.37544727       0.87530460       0.37544727 </v>
    <v>       0.87492797       0.87492797       0.37578643 </v>
    <v>       0.37544727       0.37544727       0.87530460 </v>
    <v>       0.87492797       0.37578643       0.87492797 </v>
    <v>       0.37578643       0.87492797       0.87492797 </v>
    <v>       0.87039164       0.87039164       0.87039164 </v>
   </varray>
  </structure>
  <varray name="forces" >
   <v>       0.00313401       0.00000012       0.00000006 </v>
   <v>       0.00267417       0.00000002      -0.00000005 </v>
   <v>       0.00620418      -0.00000002       0.00000002 </v>
   <v>       0.00152922      -0.00000000       0.00000000 </v>
   <v>       0.00620423      -0.00000006       0.00000002 </v>
   <v>       0.00152918      -0.00000002       0.00000002 </v>
   <v>       0.00305508       0.00000001      -0.00000002 </v>
   <v>      -0.05600694       0.00000003       0.00000014 </v>
   <v>       0.00495701       0.00691324       0.00000039 </v>
   <v>      -0.00772654       0.00577068      -0.00000002 </v>
   <v>       0.00495694      -0.00691325      -0.00000000 </v>
   <v>      -0.00772648      -0.00577071      -0.00000042 </v>
   <v>      -0.00249859      -0.00008992       0.00000007 </v>
   <v>       0.00441216      -0.00683780       0.00000007 </v>
   <v>      -0.00249858       0.00008993      -0.00000005 </v>
   <v>       0.00441216       0.00683781      -0.00000005 </v>
   <v>       0.00495692      -0.00000002       0.00691343 </v>
   <v>      -0.00772644      -0.00000003       0.00577038 </v>
   <v>      -0.00249854       0.00000004      -0.00008983 </v>
   <v>       0.00441211       0.00000006      -0.00683781 </v>
   <v>       0.00495692      -0.00000001      -0.00691297 </v>
   <v>      -0.00772649      -0.00000003      -0.00577083 </v>
   <v>      -0.00249851      -0.00000002       0.00008987 </v>
   <v>       0.00441209      -0.00000001       0.00683775 </v>
   <v>      -0.00030837       0.00634468       0.00634480 </v>
   <v>      -0.00234637      -0.00345142      -0.00345144 </v>
   <v>      -0.00030840      -0.00634467       0.00634446 </v>
   <v>      -0.00234635       0.00345138      -0.00345141 </v>
   <v>      -0.00030838       0.00634466      -0.00634443 </v>
   <v>      -0.00234634      -0.00345141       0.00345147 </v>
   <v>      -0.00030840      -0.00634461      -0.00634486 </v>
   <v>      -0.00234631       0.00345143       0.00345139 </v>
   <v>      -0.01508012      -0.01492385      -0.01492376 </v>
   <v>      -0.00127499       0.00037209       0.00037198 </v>
   <v>      -0.00004778      -0.00094940       0.00011079 </v>
   <v>       0.00011499      -0.00090725      -0.00015314 </v>
   <v>      -0.00004753       0.00011123      -0.00094988 </v>
   <v>       0.00011500      -0.00015270      -0.00090771 </v>
   <v>      -0.00104907      -0.00055814      -0.00055856 </v>
   <v>       0.00548689       0.00271847       0.00271804 </v>
   <v>       0.00184850       0.00067421       0.00067432 </v>
   <v>       0.01465231      -0.01481549      -0.01481540 </v>
   <v>       0.00105810      -0.00005249      -0.00054832 </v>
   <v>      -0.00110387      -0.00219219       0.00093506 </v>
   <v>       0.00105812      -0.00054874      -0.00005208 </v>
   <v>      -0.00110414       0.00093459      -0.00219175 </v>
   <v>       0.00716116      -0.00435170      -0.00435122 </v>
   <v>      -0.00035765      -0.00039986      -0.00039941 </v>
   <v>      -0.00004815       0.00094939       0.00011072 </v>
   <v>       0.00011410       0.00090724      -0.00015311 </v>
   <v>      -0.01508007       0.01492384      -0.01492381 </v>
   <v>      -0.00127588      -0.00037208       0.00037199 </v>
   <v>      -0.00104995       0.00055811      -0.00055856 </v>
   <v>       0.00548602      -0.00271849       0.00271801 </v>
   <v>      -0.00004843      -0.00011120      -0.00094985 </v>
   <v>       0.00011408       0.00015271      -0.00090770 </v>
   <v>       0.00105900       0.00005247      -0.00054828 </v>
   <v>      -0.00110351       0.00219218       0.00093500 </v>
   <v>       0.00184939      -0.00067420       0.00067432 </v>
   <v>       0.01465228       0.01481549      -0.01481545 </v>
   <v>       0.00716203       0.00435169      -0.00435124 </v>
   <v>      -0.00035678       0.00039983      -0.00039941 </v>
   <v>       0.00105902       0.00054874      -0.00005206 </v>
   <v>      -0.00110323      -0.00093456      -0.00219171 </v>
   <v>      -0.00004841       0.00011033       0.00094983 </v>
   <v>       0.00011410      -0.00015355       0.00090767 </v>
   <v>      -0.00104995      -0.00055903       0.00055855 </v>
   <v>       0.00548600       0.00271756      -0.00271804 </v>
   <v>      -0.01508013      -0.01492384       0.01492386 </v>
   <v>      -0.00127589       0.00037175      -0.00037188 </v>
   <v>      -0.00004811      -0.00095029      -0.00011073 </v>
   <v>       0.00011410      -0.00090812       0.00015309 </v>
   <v>       0.00105902      -0.00054786       0.00005207 </v>
   <v>      -0.00110326       0.00093545       0.00219172 </v>
   <v>       0.00716207      -0.00435079       0.00435122 </v>
   <v>      -0.00035678      -0.00039898       0.00039939 </v>
   <v>       0.00184939       0.00067454      -0.00067440 </v>
   <v>       0.01465231      -0.01481545       0.01481540 </v>
   <v>       0.00105897      -0.00005162       0.00054830 </v>
   <v>      -0.00110352      -0.00219129      -0.00093495 </v>
   <v>      -0.00104907       0.00055900       0.00055857 </v>
   <v>       0.00548690      -0.00271759      -0.00271803 </v>
   <v>      -0.00004752      -0.00011031       0.00094985 </v>
   <v>       0.00011499       0.00015360       0.00090765 </v>
   <v>      -0.00004779       0.00095030      -0.00011083 </v>
   <v>       0.00011498       0.00090812       0.00015313 </v>
   <v>      -0.01508011       0.01492383       0.01492381 </v>
   <v>      -0.00127499      -0.00037175      -0.00037188 </v>
   <v>       0.00716117       0.00435076       0.00435122 </v>
   <v>      -0.00035766       0.00039895       0.00039941 </v>
   <v>       0.00105813       0.00054789       0.00005207 </v>
   <v>      -0.00110414      -0.00093543       0.00219173 </v>
   <v>       0.00105809       0.00005162       0.00054833 </v>
   <v>      -0.00110384       0.00219129      -0.00093506 </v>
   <v>       0.00184850      -0.00067455      -0.00067439 </v>
   <v>       0.01465229       0.01481545       0.01481535 </v>
  </varray>
  <varray name="stress" >
   <v>      -1.01875643      -0.00000000      -0.00000001 </v>
   <v>      -0.00000022      -1.01808017       0.00000023 </v>
   <v>      -0.00000041       0.00000014      -1.01808005 </v>
  </varray>
  <energy>
   <i name="e_fr_energy">   -277.76848089 </i>
   <i name="e_wo_entrp">   -277.76848089 </i>
   <i name="e_0_energy">     -0.00000000 </i>
  </energy>
  <time name="totalsc">  364.38  365.92</time>
  <eigenvalues>
   <array>
    <dimension dim="1">band</dimension>
    <dimension dim="2">kpoint</dimension>
    <dimension dim="3">spin</dimension>
    <field>eigene</field>
    <field>occ</field>
    <set>
     <set comment="spin 1">
      <set comment="kpoint 1">
       <r>   -5.4896    1.0000 </r>
       <r>   -4.7780    1.0000 </r>
       <r>   -4.7780    1.0000 </r>
       <r>   -4.7689    1.0000 </r>
       <r>   -4.7689    1.0000 </r>
       <r>   -4.7689    1.0000 </r>
       <r>   -4.7409    1.0000 </r>
       <r>   -4.2065    1.0000 </r>
       <r>   -4.2065    1.0000 </r>
       <r>   -4.2003    1.0000 </r>
       <r>   -4.2003    1.0000 </r>
       <r>   -4.2003    1.0000 </r>
       <r>   -4.1952    1.0000 </r>
       <r>   -4.1952    1.0000 </r>
       <r>   -4.1952    1.0000 </r>
       <r>   -4.1855    1.0000 </r>
       <r>   -4.1854    1.0000 </r>
       <r>   -4.1854    1.0000 </r>
       <r>   -4.1417    1.0000 </r>
       <r>   -4.0661    1.0000 </r>
       <r>   -4.0661    1.0000 </r>
       <r>   -4.0661    1.0000 </r>
       <r>   -4.0497    1.0000 </r>
       <r>   -3.5079    1.0000 </r>
       <r>   -3.5079    1.0000 </r>
       <r>   -3.4979    1.0000 </r>
       <r>   -3.4675    1.0000 </r>
       <r>   -3.4675    1.0000 </r>
       <r>   -3.4601    1.0000 </r>
       <r>   -3.4601    1.0000 </r>
       <r>   -3.4601    1.0000 </r>
       <r>   -3.3909    1.0000 </r>
       <r>   -1.1929    1.0000 </r>
       <r>   -1.1580    1.0000 </r>
       <r>   -1.1580    1.0000 </r>
       <r>   -1.1580    1.0000 </r>
       <r>   -0.8439    1.0000 </r>
       <r>   -0.8439    1.0000 </r>
       <r>   -0.8439    1.0000 </r>
       <r>   -0.0448    1.0000 </r>
       <r>   -0.0448    1.0000 </r>
       <r>   -0.0448    1.0000 </r>
       <r>   -0.0339    1.0000 </r>
       <r>   -0.0339    1.0000 </r>
       <r>   -0.0339    1.0000 </r>
       <r>   -0.0257    1.0000 </r>
       <r>   -0.0257    1.0000 </r>
       <r>   -0.0257    1.0000 </r>
       <r>   -0.0005    1.0000 </r>
       <r>   -0.0003    1.0000 </r>
       <r>   -0.0003    1.0000 </r>
       <r>    0.0107    1.0000 </r>
       <r>    0.0107    1.0000 </r>
       <r>    0.0112    1.0000 </r>
       <r>    0.0112    1.0000 </r>
       <r>    0.0112    1.0000 </r>
       <r>    0.0143    1.0000 </r>
       <r>    0.0143    1.0000 </r>
       <r>    0.0143    1.0000 </r>
       <r>    0.0539    1.0000 </r>
       <r>    0.0539    1.0000 </r>
       <r>    0.0539    1.0000 </r>
       <r>    0.0685    1.0000 </r>
       <r>    0.7626    1.0000 </r>
       <r>    0.7626    1.0000 </r>
       <r>    0.7690    1.0000 </r>
       <r>    0.7837    1.0000 </r>
       <r>    0.7837    1.0000 </r>
       <r>    0.7837    1.0000 </r>
       <r>    0.8008    1.0000 </r>
       <r>    0.8008    1.0000 </r>
       <r>    0.8017    1.0000 </r>
       <r>    0.8020    1.0000 </r>
       <r>    0.8028    1.0000 </r>
       <r>    0.8028    1.0000 </r>
       <r>    0.9186    1.0000 </r>
       <r>    0.9355    1.0000 </r>
       <r>    0.9355    1.0000 </r>
       <r>    0.9355    1.0000 </r>
       <r>    0.9578    1.0000 </r>
       <r>    0.9578    1.0000 </r>
       <r>    1.1735    1.0000 </r>
       <r>    1.1736    1.0000 </r>
       <r>    1.1739    1.0000 </r>
       <r>    1.1739    1.0000 </r>
       <r>    1.1740    1.0000 </r>
       <r>    1.2244    1.0000 </r>
       <r>    1.6500    1.0000 </r>
       <r>    1.6500    1.0000 </r>
       <r>    1.6500    1.0000 </r>
       <r>    1.6527    1.0000 </r>
       <r>    1.6527    1.0000 </r>
       <r>    1.6527    1.0000 </r>
       <r>    2.3241    1.0000 </r>
       <r>    2.3241    1.0000 </r>
       <r>    2.3241    1.0000 </r>
       <r>    2.3310    1.0000 </r>
       <r>    2.3310    1.0000 </r>
       <r>    2.3312    1.0000 </r>
       <r>    2.3312    1.0000 </r>
       <r>    2.3314    1.0000 </r>
       <r>    2.3314    1.0000 </r>
       <r>    2.3812    1.0000 </r>
       <r>    2.3812    1.0000 </r>
       <r>    2.3812    1.0000 </r>
       <r>    2.7668    1.0000 </r>
       <r>    2.7668    1.0000 </r>
       <r>    2.7668    1.0000 </r>
       <r>    2.7793    1.0000 </r>
       <r>    2.7793    1.0000 </r>
       <r>    2.7793    1.0000 </r>
       <r>    2.7879    1.0000 </r>
       <r>    2.7951    1.0000 </r>
       <r>    2.7952    1.0000 </r>
       <r>    2.8223    1.0000 </r>
       <r>    2.8223    1.0000 </r>
       <r>    2.8224    1.0000 </r>
       <r>    2.8683    1.0000 </r>
       <r>    2.8683    1.0000 </r>
       <r>    2.8949    1.0000 </r>
       <r>    2.8949    1.0000 </r>
       <r>    2.8949    1.0000 </r>
       <r>    2.9792    1.0000 </r>
       <r>    2.9792    1.0000 </r>
       <r>    2.9792    1.0000 </r>
       <r>    3.6212    1.0000 </r>
       <r>    3.6212    1.0000 </r>
       <r>    3.6212    1.0000 </r>
       <r>    3.7507    0.0000 </r>
       <r>    3.7931    0.0000 </r>
       <r>    3.7931    0.0000 </r>
       <r>    3.9521    0.0000 </r>
       <r>    3.9521    0.0000 </r>
       <r>    3.9521    0.0000 </r>
       <r>    4.7270    0.0000 </r>
       <r>    4.7270    0.0000 </r>
       <r>    4.7591    0.0000 </r>
       <r>    4.7591    0.0000 </r>
       <r>    4.7591    0.0000 </r>
       <r>    4.7621    0.0000 </r>
       <r>    4.8109    0.0000 </r>
       <r>    4.8109    0.0000 </r>
       <r>    4.8109    0.0000 </r>
       <r>    4.8421    0.0000 </r>
       <r>    5.3097    0.0000 </r>
       <r>    5.3097    0.0000 </r>
       <r>    5.3097    0.0000 </r>
       <r>    5.3202    0.0000 </r>
       <r>    5.3202    0.0000 </r>
       <r>    5.3252    0.0000 </r>
       <r>    5.3252    0.0000 </r>
       <r>    5.3252    0.0000 </r>
       <r>    5.3335    0.0000 </r>
       <r>    5.3649    0.0000 </r>
       <r>    5.3649    0.0000 </r>
       <r>    5.3649    0.0000 </r>
       <r>    5.3732    0.0000 </r>
       <r>    5.3733    0.0000 </r>
       <r>    5.3733    0.0000 </r>
       <r>    5.3740    0.0000 </r>
       <r>    5.4337    0.0000 </r>
       <r>    5.4337    0.0000 </r>
       <r>    5.5273    0.0000 </r>
       <r>    6.0784    0.0000 </r>
       <r>    6.0784    0.0000 </r>
       <r>    6.0784    0.0000 </r>
       <r>    6.1002    0.0000 </r>
       <r>    6.1002    0.0000 </r>
       <r>    6.1002    0.0000 </r>
       <r>    6.1460    0.0000 </r>
       <r>    6.1460    0.0000 </r>
       <r>    6.1490    0.0000 </r>
       <r>    6.1490    0.0000 </r>
       <r>    6.1490    0.0000 </r>
       <r>    6.2467    0.0000 </r>
       <r>    6.2497    0.0000 </r>
       <r>    6.2567    0.0000 </r>
       <r>    6.2743    0.0000 </r>
      </set>
     </set>
    </set>
   </array>
  </eigenvalues>
  <separator name="orbital magnetization" >
   <v name="MAGDIPOLOUT">      0.00000000      0.00000000      0.00000000</v>
  </separator>
  <dos>
   <i name="efermi">      3.68133940 </i>
   <total>
    <array>
     <dimension dim="1">gridpoints</dimension>
     <dimension dim="2">spin</dimension>
     <field>energy</field>
     <field>total</field>
     <field>integrated</field>
     <set>
      <set comment="spin 1">
       <r>    -6.0778     0.0000     0.0000 </r>
       <r>    -6.0346     0.0000     0.0000 </r>
       <r>    -5.9915     0.0000     0.0000 </r>
       <r>    -5.9484     0.0000     0.0000 </r>
       <r>    -5.9052     0.0000     0.0000 </r>
       <r>    -5.8621     0.0000     0.0000 </r>
       <r>    -5.8190     0.0000     0.0000 </r>
       <r>    -5.7758     0.0000     0.0000 </r>
       <r>    -5.7327     0.0000     0.0000 </r>
       <r>    -5.6896     0.0000     0.0000 </r>
       <r>    -5.6464     0.0000     0.0000 </r>
       <r>    -5.6033     0.0000     0.0000 </r>
       <r>    -5.5602     0.0000     0.0000 </r>
       <r>    -5.5170     0.0024     0.0001 </r>
       <r>    -5.4739    45.7492     1.9735 </r>
       <r>    -5.4308     0.6153     2.0000 </r>
       <r>    -5.3876     0.0000     2.0000 </r>
       <r>    -5.3445     0.0000     2.0000 </r>
       <r>    -5.3014     0.0000     2.0000 </r>
       <r>    -5.2582     0.0000     2.0000 </r>
       <r>    -5.2151     0.0000     2.0000 </r>
       <r>    -5.1720     0.0000     2.0000 </r>
       <r>    -5.1288     0.0000     2.0000 </r>
       <r>    -5.0857     0.0000     2.0000 </r>
       <r>    -5.0425     0.0000     2.0000 </r>
       <r>    -4.9994     0.0000     2.0000 </r>
       <r>    -4.9563     0.0000     2.0000 </r>
       <r>    -4.9131     0.0000     2.0000 </r>
       <r>    -4.8700     0.0000     2.0000 </r>
       <r>    -4.8269     0.0000     2.0000 </r>
       <r>    -4.7837    21.8572     2.9428 </r>
       <r>    -4.7406   233.9326    13.0333 </r>
       <r>    -4.6975    22.4118    14.0000 </r>
       <r>    -4.6543     0.0000    14.0000 </r>
       <r>    -4.6112     0.0000    14.0000 </r>
       <r>    -4.5681     0.0000    14.0000 </r>
       <r>    -4.5249     0.0000    14.0000 </r>
       <r>    -4.4818     0.0000    14.0000 </r>
       <r>    -4.4387     0.0000    14.0000 </r>
       <r>    -4.3955     0.0000    14.0000 </r>
       <r>    -4.3524     0.0000    14.0000 </r>
       <r>    -4.3093     0.0000    14.0000 </r>
       <r>    -4.2661     0.0000    14.0000 </r>
       <r>    -4.2230     1.0194    14.0440 </r>
       <r>    -4.1799   476.8260    34.6115 </r>
       <r>    -4.1367    67.3145    37.5150 </r>
       <r>    -4.0936    11.2504    38.0003 </r>
       <r>    -4.0505   158.3331    44.8299 </r>
       <r>    -4.0073    27.1277    46.0000 </r>
       <r>    -3.9642     0.0000    46.0000 </r>
       <r>    -3.9211     0.0000    46.0000 </r>
       <r>    -3.8779     0.0000    46.0000 </r>
       <r>    -3.8348     0.0000    46.0000 </r>
       <r>    -3.7917     0.0000    46.0000 </r>
       <r>    -3.7485     0.0000    46.0000 </r>
       <r>    -3.7054     0.0000    46.0000 </r>
       <r>    -3.6623     0.0000    46.0000 </r>
       <r>    -3.6191     0.0000    46.0000 </r>
       <r>    -3.5760     0.0000    46.0000 </r>
       <r>    -3.5329     0.0192    46.0008 </r>
       <r>    -3.4897   133.0202    51.7385 </r>
       <r>    -3.4466   233.8831    61.8269 </r>
       <r>    -3.4034     5.7494    62.0749 </r>
       <r>    -3.3603    44.6301    64.0000 </r>
       <r>    -3.3172     0.0004    64.0000 </r>
       <r>    -3.2740     0.0000    64.0000 </r>
       <r>    -3.2309     0.0000    64.0000 </r>
       <r>    -3.1878     0.0000    64.0000 </r>
       <r>    -3.1446     0.0000    64.0000 </r>
       <r>    -3.1015     0.0000    64.0000 </r>
       <r>    -3.0584     0.0000    64.0000 </r>
       <r>    -3.0152     0.0000    64.0000 </r>
       <r>    -2.9721     0.0000    64.0000 </r>
       <r>    -2.9290     0.0000    64.0000 </r>
       <r>    -2.8858     0.0000    64.0000 </r>
       <r>    -2.8427     0.0000    64.0000 </r>
       <r>    -2.7996     0.0000    64.0000 </r>
       <r>    -2.7564     0.0000    64.0000 </r>
       <r>    -2.7133     0.0000    64.0000 </r>
       <r>    -2.6702     0.0000    64.0000 </r>
       <r>    -2.6270     0.0000    64.0000 </r>
       <r>    -2.5839     0.0000    64.0000 </r>
       <r>    -2.5408     0.0000    64.0000 </r>
       <r>    -2.4976     0.0000    64.0000 </r>
       <r>    -2.4545     0.0000    64.0000 </r>
       <r>    -2.4114     0.0000    64.0000 </r>
       <r>    -2.3682     0.0000    64.0000 </r>
       <r>    -2.3251     0.0000    64.0000 </r>
       <r>    -2.2820     0.0000    64.0000 </r>
       <r>    -2.2388     0.0000    64.0000 </r>
       <r>    -2.1957     0.0000    64.0000 </r>
       <r>    -2.1526     0.0000    64.0000 </r>
       <r>    -2.1094     0.0000    64.0000 </r>
       <r>    -2.0663     0.0000    64.0000 </r>
       <r>    -2.0232     0.0000    64.0000 </r>
       <r>    -1.9800     0.0000    64.0000 </r>
       <r>    -1.9369     0.0000    64.0000 </r>
       <r>    -1.8938     0.0000    64.0000 </r>
       <r>    -1.8506     0.0000    64.0000 </r>
       <r>    -1.8075     0.0000    64.0000 </r>
       <r>    -1.7644     0.0000    64.0000 </r>
       <r>    -1.7212     0.0000    64.0000 </r>
       <r>    -1.6781     0.0000    64.0000 </r>
       <r>    -1.6349     0.0000    64.0000 </r>
       <r>    -1.5918     0.0000    64.0000 </r>
       <r>    -1.5487     0.0000    64.0000 </r>
       <r>    -1.5055     0.0000    64.0000 </r>
       <r>    -1.4624     0.0000    64.0000 </r>
       <r>    -1.4193     0.0000    64.0000 </r>
       <r>    -1.3761     0.0000    64.0000 </r>
       <r>    -1.3330     0.0000    64.0000 </r>
       <r>    -1.2899     0.0000    64.0000 </r>
       <r>    -1.2467     0.0000    64.0000 </r>
       <r>    -1.2036     3.0219    64.1303 </r>
       <r>    -1.1605    93.8566    68.1788 </r>
       <r>    -1.1173    88.5892    72.0000 </r>
       <r>    -1.0742     0.0000    72.0000 </r>
       <r>    -1.0311     0.0000    72.0000 </r>
       <r>    -0.9879     0.0000    72.0000 </r>
       <r>    -0.9448     0.0000    72.0000 </r>
       <r>    -0.9017     0.0000    72.0000 </r>
       <r>    -0.8585     2.7035    72.1166 </r>
       <r>    -0.8154   136.3935    77.9998 </r>
       <r>    -0.7723     0.0038    78.0000 </r>
       <r>    -0.7291     0.0000    78.0000 </r>
       <r>    -0.6860     0.0000    78.0000 </r>
       <r>    -0.6429     0.0000    78.0000 </r>
       <r>    -0.5997     0.0000    78.0000 </r>
       <r>    -0.5566     0.0000    78.0000 </r>
       <r>    -0.5135     0.0000    78.0000 </r>
       <r>    -0.4703     0.0000    78.0000 </r>
       <r>    -0.4272     0.0000    78.0000 </r>
       <r>    -0.3841     0.0000    78.0000 </r>
       <r>    -0.3409     0.0000    78.0000 </r>
       <r>    -0.2978     0.0000    78.0000 </r>
       <r>    -0.2547     0.0000    78.0000 </r>
       <r>    -0.2115     0.0000    78.0000 </r>
       <r>    -0.1684     0.0000    78.0000 </r>
       <r>    -0.1253     0.0000    78.0000 </r>
       <r>    -0.0821     0.0000    78.0000 </r>
       <r>    -0.0390   147.2420    84.3512 </r>
       <r>     0.0042   421.9569   102.5519 </r>
       <r>     0.0473   382.3363   119.0437 </r>
       <r>     0.0904   161.2262   125.9981 </r>
       <r>     0.1336     0.0452   126.0000 </r>
       <r>     0.1767     0.0000   126.0000 </r>
       <r>     0.2198     0.0000   126.0000 </r>
       <r>     0.2630     0.0000   126.0000 </r>
       <r>     0.3061     0.0000   126.0000 </r>
       <r>     0.3492     0.0000   126.0000 </r>
       <r>     0.3924     0.0000   126.0000 </r>
       <r>     0.4355     0.0000   126.0000 </r>
       <r>     0.4786     0.0000   126.0000 </r>
       <r>     0.5218     0.0000   126.0000 </r>
       <r>     0.5649     0.0000   126.0000 </r>
       <r>     0.6080     0.0000   126.0000 </r>
       <r>     0.6512     0.0000   126.0000 </r>
       <r>     0.6943     0.0000   126.0000 </r>
       <r>     0.7374     0.0174   126.0008 </r>
       <r>     0.7806   181.9820   133.8504 </r>
       <r>     0.8237   374.1084   149.9873 </r>
       <r>     0.8668     0.2954   150.0000 </r>
       <r>     0.9100     5.1373   150.2216 </r>
       <r>     0.9531   202.8522   158.9715 </r>
       <r>     0.9962    70.2121   162.0000 </r>
       <r>     1.0394     0.0000   162.0000 </r>
       <r>     1.0825     0.0000   162.0000 </r>
       <r>     1.1256     0.0000   162.0000 </r>
       <r>     1.1688    55.8214   164.4078 </r>
       <r>     1.2119   177.8271   172.0782 </r>
       <r>     1.2550    44.5528   174.0000 </r>
       <r>     1.2982     0.0003   174.0000 </r>
       <r>     1.3413     0.0000   174.0000 </r>
       <r>     1.3844     0.0000   174.0000 </r>
       <r>     1.4276     0.0000   174.0000 </r>
       <r>     1.4707     0.0000   174.0000 </r>
       <r>     1.5138     0.0000   174.0000 </r>
       <r>     1.5570     0.0000   174.0000 </r>
       <r>     1.6001     0.0000   174.0000 </r>
       <r>     1.6432    36.2395   175.5632 </r>
       <r>     1.6864   241.9620   186.0000 </r>
       <r>     1.7295     0.0002   186.0000 </r>
       <r>     1.7727     0.0000   186.0000 </r>
       <r>     1.8158     0.0000   186.0000 </r>
       <r>     1.8589     0.0000   186.0000 </r>
       <r>     1.9021     0.0000   186.0000 </r>
       <r>     1.9452     0.0000   186.0000 </r>
       <r>     1.9883     0.0000   186.0000 </r>
       <r>     2.0315     0.0000   186.0000 </r>
       <r>     2.0746     0.0000   186.0000 </r>
       <r>     2.1177     0.0000   186.0000 </r>
       <r>     2.1609     0.0000   186.0000 </r>
       <r>     2.2040     0.0000   186.0000 </r>
       <r>     2.2471     0.0000   186.0000 </r>
       <r>     2.2903     0.0001   186.0000 </r>
       <r>     2.3334   299.0184   198.8979 </r>
       <r>     2.3765   153.4765   205.5180 </r>
       <r>     2.4197   103.9083   210.0000 </r>
       <r>     2.4628     0.0000   210.0000 </r>
       <r>     2.5059     0.0000   210.0000 </r>
       <r>     2.5491     0.0000   210.0000 </r>
       <r>     2.5922     0.0000   210.0000 </r>
       <r>     2.6353     0.0000   210.0000 </r>
       <r>     2.6785     0.0000   210.0000 </r>
       <r>     2.7216     0.0000   210.0000 </r>
       <r>     2.7647    56.3206   212.4293 </r>
       <r>     2.8079   360.3786   227.9740 </r>
       <r>     2.8510   140.3678   234.0286 </r>
       <r>     2.8941   155.8464   240.7509 </r>
       <r>     2.9373    75.3245   244.0000 </r>
       <r>     2.9804    79.1026   247.4120 </r>
       <r>     3.0235    59.9982   250.0000 </r>
       <r>     3.0667     0.0000   250.0000 </r>
       <r>     3.1098     0.0000   250.0000 </r>
       <r>     3.1529     0.0000   250.0000 </r>
       <r>     3.1961     0.0000   250.0000 </r>
       <r>     3.2392     0.0000   250.0000 </r>
       <r>     3.2823     0.0000   250.0000 </r>
       <r>     3.3255     0.0000   250.0000 </r>
       <r>     3.3686     0.0000   250.0000 </r>
       <r>     3.4118     0.0000   250.0000 </r>
       <r>     3.4549     0.0000   250.0000 </r>
       <r>     3.4980     0.0000   250.0000 </r>
       <r>     3.5412     0.0000   250.0000 </r>
       <r>     3.5843     0.0000   250.0000 </r>
       <r>     3.6274   112.9862   254.8736 </r>
       <r>     3.6706    26.1146   256.0000 </r>
       <r>     3.7137     0.0000   256.0000 </r>
       <r>     3.7568    37.4566   257.6157 </r>
       <r>     3.8000    86.2570   261.3363 </r>
       <r>     3.8431    15.3872   262.0000 </r>
       <r>     3.8862     0.0000   262.0000 </r>
       <r>     3.9294     0.0886   262.0038 </r>
       <r>     3.9725   138.7342   267.9880 </r>
       <r>     4.0156     0.2779   268.0000 </r>
       <r>     4.0588     0.0000   268.0000 </r>
       <r>     4.1019     0.0000   268.0000 </r>
       <r>     4.1450     0.0000   268.0000 </r>
       <r>     4.1882     0.0000   268.0000 </r>
       <r>     4.2313     0.0000   268.0000 </r>
       <r>     4.2744     0.0000   268.0000 </r>
       <r>     4.3176     0.0000   268.0000 </r>
       <r>     4.3607     0.0000   268.0000 </r>
       <r>     4.4038     0.0000   268.0000 </r>
       <r>     4.4470     0.0000   268.0000 </r>
       <r>     4.4901     0.0000   268.0000 </r>
       <r>     4.5332     0.0000   268.0000 </r>
       <r>     4.5764     0.0000   268.0000 </r>
       <r>     4.6195     0.0000   268.0000 </r>
       <r>     4.6626     0.0000   268.0000 </r>
       <r>     4.7058     0.1225   268.0053 </r>
       <r>     4.7489   104.3806   272.5077 </r>
       <r>     4.7920   174.2405   280.0234 </r>
       <r>     4.8352   146.0675   286.3239 </r>
       <r>     4.8783    38.8583   288.0000 </r>
       <r>     4.9214     0.0000   288.0000 </r>
       <r>     4.9646     0.0000   288.0000 </r>
       <r>     5.0077     0.0000   288.0000 </r>
       <r>     5.0508     0.0000   288.0000 </r>
       <r>     5.0940     0.0000   288.0000 </r>
       <r>     5.1371     0.0000   288.0000 </r>
       <r>     5.1803     0.0000   288.0000 </r>
       <r>     5.2234     0.0000   288.0000 </r>
       <r>     5.2665     0.0000   288.0000 </r>
       <r>     5.3097    77.1451   291.3276 </r>
       <r>     5.3528   346.4078   306.2696 </r>
       <r>     5.3959   318.1793   319.9940 </r>
       <r>     5.4391    71.9114   323.0959 </r>
       <r>     5.4822    20.9613   324.0000 </r>
       <r>     5.5253    17.9992   324.7764 </r>
       <r>     5.5685    28.3677   326.0000 </r>
       <r>     5.6116     0.0000   326.0000 </r>
       <r>     5.6547     0.0000   326.0000 </r>
       <r>     5.6979     0.0000   326.0000 </r>
       <r>     5.7410     0.0000   326.0000 </r>
       <r>     5.7841     0.0000   326.0000 </r>
       <r>     5.8273     0.0000   326.0000 </r>
       <r>     5.8704     0.0000   326.0000 </r>
       <r>     5.9135     0.0000   326.0000 </r>
       <r>     5.9567     0.0000   326.0000 </r>
       <r>     5.9998     0.0000   326.0000 </r>
       <r>     6.0429     0.0000   326.0000 </r>
       <r>     6.0861   123.0080   331.3059 </r>
       <r>     6.1292   156.3580   338.0502 </r>
       <r>     6.1723   230.5926   347.9966 </r>
       <r>     6.2155     0.0780   348.0000 </r>
       <r>     6.2586   114.4959   352.9387 </r>
       <r>     6.3017    70.9691   355.9999 </r>
       <r>     6.3449     0.0024   356.0000 </r>
       <r>     6.3880     0.0000   356.0000 </r>
       <r>     6.4311     0.0000   356.0000 </r>
       <r>     6.4743     0.0000   356.0000 </r>
       <r>     6.5174     0.0000   356.0000 </r>
       <r>     6.5605     0.0000   356.0000 </r>
       <r>     6.6037     0.0000   356.0000 </r>
       <r>     6.6468     0.0000   356.0000 </r>
       <r>     6.6899     0.0000   356.0000 </r>
       <r>     6.7331     0.0000   356.0000 </r>
       <r>     6.7762     0.0000   356.0000 </r>
       <r>     6.8194     0.0000   356.0000 </r>
       <r>     6.8625     0.0000   356.0000 </r>
      </set>
     </set>
    </array>
   </total>
  </dos>
 </calculation>
 <structure name="finalpos" >
  <crystal>
   <varray name="basis" >
    <v>      12.74739769       0.00000000       0.00000000 </v>
    <v>       0.00000000      12.74739769       0.00000000 </v>
    <v>       0.00000000       0.00000000      12.74739769 </v>
   </varray>
   <i name="volume">   2071.40301882 </i>
   <varray name="rec_basis" >
    <v>       0.07844738       0.00000000       0.00000000 </v>
    <v>       0.00000000       0.07844738       0.00000000 </v>
    <v>       0.00000000       0.00000000       0.07844738 </v>
   </varray>
  </crystal>
  <varray name="positions" >
   <v>       0.00000000       0.00000000       0.00000000 </v>
   <v>       0.50000000       0.00000000       0.00000000 </v>
   <v>       0.00000000       0.50000000       0.00000000 </v>
   <v>       0.50000000       0.50000000       0.00000000 </v>
   <v>       0.00000000       0.00000000       0.50000000 </v>
   <v>       0.50000000       0.00000000       0.50000000 </v>
   <v>       0.00000000       0.50000000       0.50000000 </v>
   <v>       0.50078447       0.50000000       0.50000000 </v>
   <v>       0.25140293       0.25140293       0.00000000 </v>
   <v>       0.74859707       0.25140293       0.00000000 </v>
   <v>       0.25140293       0.74859707       0.00000000 </v>
   <v>       0.74859707       0.74859707       0.00000000 </v>
   <v>       0.25012668       0.25012668       0.50000000 </v>
   <v>       0.74987332       0.25012668       0.50000000 </v>
   <v>       0.25012668       0.74987332       0.50000000 </v>
   <v>       0.74987332       0.74987332       0.50000000 </v>
   <v>       0.25140293       0.00000000       0.25140293 </v>
   <v>       0.74859707       0.00000000       0.25140293 </v>
   <v>       0.25012668       0.50000000       0.25012668 </v>
   <v>       0.74987332       0.50000000       0.25012668 </v>
   <v>       0.25140293       0.00000000       0.74859707 </v>
   <v>       0.74859707       0.00000000       0.74859707 </v>
   <v>       0.25012668       0.50000000       0.74987332 </v>
   <v>       0.74987332       0.50000000       0.74987332 </v>
   <v>       0.00000000       0.25140293       0.25140293 </v>
   <v>       0.50000000       0.25012668       0.25012668 </v>
   <v>       0.00000000       0.74859707       0.25140293 </v>
   <v>       0.50000000       0.74987332       0.25012668 </v>
   <v>       0.00000000       0.25140293       0.74859707 </v>
   <v>       0.50000000       0.25012668       0.74987332 </v>
   <v>       0.00000000       0.74859707       0.74859707 </v>
   <v>       0.50000000       0.74987332       0.74987332 </v>
   <v>       0.12960836       0.12960836       0.12960836 </v>
   <v>       0.62421357       0.12507203       0.12507203 </v>
   <v>       0.12507203       0.62421357       0.12507203 </v>
   <v>       0.62455273       0.62455273       0.12469540 </v>
   <v>       0.12507203       0.12507203       0.62421357 </v>
   <v>       0.62455273       0.12469540       0.62455273 </v>
   <v>       0.12469540       0.62455273       0.62455273 </v>
   <v>       0.62508239       0.62508239       0.62508239 </v>
   <v>       0.37578643       0.12507203       0.12507203 </v>
   <v>       0.87039164       0.12960836       0.12960836 </v>
   <v>       0.37544727       0.62455273       0.12469540 </v>
   <v>       0.87492797       0.62421357       0.12507203 </v>
   <v>       0.37544727       0.12469540       0.62455273 </v>
   <v>       0.87492797       0.12507203       0.62421357 </v>
   <v>       0.37491761       0.62508239       0.62508239 </v>
   <v>       0.87530460       0.62455273       0.62455273 </v>
   <v>       0.12507203       0.37578643       0.12507203 </v>
   <v>       0.62455273       0.37544727       0.12469540 </v>
   <v>       0.12960836       0.87039164       0.12960836 </v>
   <v>       0.62421357       0.87492797       0.12507203 </v>
   <v>       0.12469540       0.37544727       0.62455273 </v>
   <v>       0.62508239       0.37491761       0.62508239 </v>
   <v>       0.12507203       0.87492797       0.62421357 </v>
   <v>       0.62455273       0.87530460       0.62455273 </v>
   <v>       0.37544727       0.37544727       0.12469540 </v>
   <v>       0.87492797       0.37578643       0.12507203 </v>
   <v>       0.37578643       0.87492797       0.12507203 </v>
   <v>       0.87039164       0.87039164       0.12960836 </v>
   <v>       0.37491761       0.37491761       0.62508239 </v>
   <v>       0.87530460       0.37544727       0.62455273 </v>
   <v>       0.37544727       0.87530460       0.62455273 </v>
   <v>       0.87492797       0.87492797       0.62421357 </v>
   <v>       0.12507203       0.12507203       0.37578643 </v>
   <v>       0.62455273       0.12469540       0.37544727 </v>
   <v>       0.12469540       0.62455273       0.37544727 </v>
   <v>       0.62508239       0.62508239       0.37491761 </v>
   <v>       0.12960836       0.12960836       0.87039164 </v>
   <v>       0.62421357       0.12507203       0.87492797 </v>
   <v>       0.12507203       0.62421357       0.87492797 </v>
   <v>       0.62455273       0.62455273       0.87530460 </v>
   <v>       0.37544727       0.12469540       0.37544727 </v>
   <v>       0.87492797       0.12507203       0.37578643 </v>
   <v>       0.37491761       0.62508239       0.37491761 </v>
   <v>       0.87530460       0.62455273       0.37544727 </v>
   <v>       0.37578643       0.12507203       0.87492797 </v>
   <v>       0.87039164       0.12960836       0.87039164 </v>
   <v>       0.37544727       0.62455273       0.87530460 </v>
   <v>       0.87492797       0.62421357       0.87492797 </v>
   <v>       0.12469540       0.37544727       0.37544727 </v>
   <v>       0.62508239       0.37491761       0.37491761 </v>
   <v>       0.12507203       0.87492797       0.37578643 </v>
   <v>       0.62455273       0.87530460       0.37544727 </v>
   <v>       0.12507203       0.37578643       0.87492797 </v>
   <v>       0.62455273       0.37544727       0.87530460 </v>
   <v>       0.12960836       0.87039164       0.87039164 </v>
   <v>       0.62421357       0.87492797       0.87492797 </v>
   <v>       0.37491761       0.37491761       0.37491761 </v>
   <v>       0.87530460       0.37544727       0.37544727 </v>
   <v>       0.37544727       0.87530460       0.37544727 </v>
   <v>       0.87492797       0.87492797       0.37578643 </v>
   <v>       0.37544727       0.37544727       0.87530460 </v>
   <v>       0.87492797       0.37578643       0.87492797 </v>
   <v>       0.37578643       0.87492797       0.87492797 </v>
   <v>       0.87039164       0.87039164       0.87039164 </v>
  </varray>
 </structure>
</modeling>
