  96  96   0   0
  0.2139429E+02  0.1271129E-08  0.1271129E-08  0.1271129E-08  0.5000000E-15
  1.000000000000000E-004
  CAR 
 unknown system                          
      6.87344004     -6.06491939  301      3.69276001      1.00000000
     -6.065  0.0000E+00  0.0000E+00
     -6.022  0.0000E+00  0.0000E+00
     -5.979  0.0000E+00  0.0000E+00
     -5.936  0.0000E+00  0.0000E+00
     -5.892  0.0000E+00  0.0000E+00
     -5.849  0.0000E+00  0.0000E+00
     -5.806  0.0000E+00  0.0000E+00
     -5.763  0.0000E+00  0.0000E+00
     -5.720  0.0000E+00  0.0000E+00
     -5.677  0.0000E+00  0.0000E+00
     -5.634  0.0000E+00  0.0000E+00
     -5.591  0.0000E+00  0.0000E+00
     -5.547  0.0000E+00  0.0000E+00
     -5.504  0.2409E-02  0.1039E-03
     -5.461  0.4576E+02  0.1973E+01
     -5.418  0.6159E+00  0.2000E+01
     -5.375  0.0000E+00  0.2000E+01
     -5.332  0.0000E+00  0.2000E+01
     -5.289  0.0000E+00  0.2000E+01
     -5.245  0.0000E+00  0.2000E+01
     -5.202  0.0000E+00  0.2000E+01
     -5.159  0.0000E+00  0.2000E+01
     -5.116  0.0000E+00  0.2000E+01
     -5.073  0.0000E+00  0.2000E+01
     -5.030  0.0000E+00  0.2000E+01
     -4.987  0.0000E+00  0.2000E+01
     -4.944  0.0000E+00  0.2000E+01
     -4.900  0.0000E+00  0.2000E+01
     -4.857  0.0000E+00  0.2000E+01
     -4.814  0.0000E+00  0.2000E+01
     -4.771  0.4817E+00  0.2021E+01
     -4.728  0.2776E+03  0.1399E+02
     -4.685  0.2097E+00  0.1400E+02
     -4.642  0.0000E+00  0.1400E+02
     -4.599  0.0000E+00  0.1400E+02
     -4.555  0.0000E+00  0.1400E+02
     -4.512  0.0000E+00  0.1400E+02
     -4.469  0.0000E+00  0.1400E+02
     -4.426  0.0000E+00  0.1400E+02
     -4.383  0.0000E+00  0.1400E+02
     -4.340  0.0000E+00  0.1400E+02
     -4.297  0.0000E+00  0.1400E+02
     -4.254  0.0000E+00  0.1400E+02
     -4.210  0.6374E-05  0.1400E+02
     -4.167  0.3822E+03  0.3048E+02
     -4.124  0.1743E+03  0.3800E+02
     -4.081  0.1755E-05  0.3800E+02
     -4.038  0.1268E+03  0.4347E+02
     -3.995  0.5870E+02  0.4600E+02
     -3.952  0.0000E+00  0.4600E+02
     -3.909  0.0000E+00  0.4600E+02
     -3.865  0.0000E+00  0.4600E+02
     -3.822  0.0000E+00  0.4600E+02
     -3.779  0.0000E+00  0.4600E+02
     -3.736  0.0000E+00  0.4600E+02
     -3.693  0.0000E+00  0.4600E+02
     -3.650  0.0000E+00  0.4600E+02
     -3.607  0.0000E+00  0.4600E+02
     -3.564  0.0000E+00  0.4600E+02
     -3.520  0.2108E-06  0.4600E+02
     -3.477  0.7891E+02  0.4940E+02
     -3.434  0.1276E+03  0.5490E+02
     -3.391  0.2109E+03  0.6400E+02
     -3.348  0.0000E+00  0.6400E+02
     -3.305  0.0000E+00  0.6400E+02
     -3.262  0.0000E+00  0.6400E+02
     -3.218  0.0000E+00  0.6400E+02
     -3.175  0.0000E+00  0.6400E+02
     -3.132  0.0000E+00  0.6400E+02
     -3.089  0.0000E+00  0.6400E+02
     -3.046  0.0000E+00  0.6400E+02
     -3.003  0.0000E+00  0.6400E+02
     -2.960  0.0000E+00  0.6400E+02
     -2.917  0.0000E+00  0.6400E+02
     -2.873  0.0000E+00  0.6400E+02
     -2.830  0.0000E+00  0.6400E+02
     -2.787  0.0000E+00  0.6400E+02
     -2.744  0.0000E+00  0.6400E+02
     -2.701  0.0000E+00  0.6400E+02
     -2.658  0.0000E+00  0.6400E+02
     -2.615  0.0000E+00  0.6400E+02
     -2.572  0.0000E+00  0.6400E+02
     -2.528  0.0000E+00  0.6400E+02
     -2.485  0.0000E+00  0.6400E+02
     -2.442  0.0000E+00  0.6400E+02
     -2.399  0.0000E+00  0.6400E+02
     -2.356  0.0000E+00  0.6400E+02
     -2.313  0.0000E+00  0.6400E+02
     -2.270  0.0000E+00  0.6400E+02
     -2.227  0.0000E+00  0.6400E+02
     -2.183  0.0000E+00  0.6400E+02
     -2.140  0.0000E+00  0.6400E+02
     -2.097  0.0000E+00  0.6400E+02
     -2.054  0.0000E+00  0.6400E+02
     -2.011  0.0000E+00  0.6400E+02
     -1.968  0.0000E+00  0.6400E+02
     -1.925  0.0000E+00  0.6400E+02
     -1.882  0.0000E+00  0.6400E+02
     -1.838  0.0000E+00  0.6400E+02
     -1.795  0.0000E+00  0.6400E+02
     -1.752  0.0000E+00  0.6400E+02
     -1.709  0.0000E+00  0.6400E+02
     -1.666  0.0000E+00  0.6400E+02
     -1.623  0.0000E+00  0.6400E+02
     -1.580  0.0000E+00  0.6400E+02
     -1.536  0.0000E+00  0.6400E+02
     -1.493  0.0000E+00  0.6400E+02
     -1.450  0.0000E+00  0.6400E+02
     -1.407  0.0000E+00  0.6400E+02
     -1.364  0.0000E+00  0.6400E+02
     -1.321  0.0000E+00  0.6400E+02
     -1.278  0.0000E+00  0.6400E+02
     -1.235  0.0000E+00  0.6400E+02
     -1.191  0.2592E-07  0.6400E+02
     -1.148  0.7728E+02  0.6733E+02
     -1.105  0.1082E+03  0.7200E+02
     -1.062  0.0000E+00  0.7200E+02
     -1.019  0.0000E+00  0.7200E+02
     -0.976  0.0000E+00  0.7200E+02
     -0.933  0.0000E+00  0.7200E+02
     -0.890  0.0000E+00  0.7200E+02
     -0.846  0.1209E-01  0.7200E+02
     -0.803  0.1378E+03  0.7794E+02
     -0.760  0.1324E+01  0.7800E+02
     -0.717  0.0000E+00  0.7800E+02
     -0.674  0.0000E+00  0.7800E+02
     -0.631  0.0000E+00  0.7800E+02
     -0.588  0.0000E+00  0.7800E+02
     -0.545  0.0000E+00  0.7800E+02
     -0.501  0.0000E+00  0.7800E+02
     -0.458  0.0000E+00  0.7800E+02
     -0.415  0.0000E+00  0.7800E+02
     -0.372  0.0000E+00  0.7800E+02
     -0.329  0.0000E+00  0.7800E+02
     -0.286  0.0000E+00  0.7800E+02
     -0.243  0.0000E+00  0.7800E+02
     -0.200  0.0000E+00  0.7800E+02
     -0.156  0.0000E+00  0.7800E+02
     -0.113  0.0000E+00  0.7800E+02
     -0.070  0.0000E+00  0.7800E+02
     -0.027  0.1628E-05  0.7800E+02
      0.016  0.3391E+03  0.9262E+02
      0.059  0.7733E+03  0.1260E+03
      0.102  0.5434E+00  0.1260E+03
      0.145  0.0000E+00  0.1260E+03
      0.189  0.0000E+00  0.1260E+03
      0.232  0.0000E+00  0.1260E+03
      0.275  0.0000E+00  0.1260E+03
      0.318  0.0000E+00  0.1260E+03
      0.361  0.0000E+00  0.1260E+03
      0.404  0.0000E+00  0.1260E+03
      0.447  0.0000E+00  0.1260E+03
      0.491  0.0000E+00  0.1260E+03
      0.534  0.0000E+00  0.1260E+03
      0.577  0.0000E+00  0.1260E+03
      0.620  0.0000E+00  0.1260E+03
      0.663  0.0000E+00  0.1260E+03
      0.706  0.0000E+00  0.1260E+03
      0.749  0.0000E+00  0.1260E+03
      0.792  0.1715E+00  0.1260E+03
      0.836  0.5541E+03  0.1499E+03
      0.879  0.2184E+01  0.1500E+03
      0.922  0.7117E-04  0.1500E+03
      0.965  0.2387E+03  0.1603E+03
      1.008  0.3952E+02  0.1620E+03
      1.051  0.0000E+00  0.1620E+03
      1.094  0.0000E+00  0.1620E+03
      1.137  0.0000E+00  0.1620E+03
      1.181  0.5008E-02  0.1620E+03
      1.224  0.2711E+03  0.1737E+03
      1.267  0.7126E+01  0.1740E+03
      1.310  0.0000E+00  0.1740E+03
      1.353  0.0000E+00  0.1740E+03
      1.396  0.0000E+00  0.1740E+03
      1.439  0.0000E+00  0.1740E+03
      1.482  0.0000E+00  0.1740E+03
      1.526  0.0000E+00  0.1740E+03
      1.569  0.0000E+00  0.1740E+03
      1.612  0.0000E+00  0.1740E+03
      1.655  0.2127E+00  0.1740E+03
      1.698  0.2776E+03  0.1860E+03
      1.741  0.4715E+00  0.1860E+03
      1.784  0.0000E+00  0.1860E+03
      1.827  0.0000E+00  0.1860E+03
      1.871  0.0000E+00  0.1860E+03
      1.914  0.0000E+00  0.1860E+03
      1.957  0.0000E+00  0.1860E+03
      2.000  0.0000E+00  0.1860E+03
      2.043  0.0000E+00  0.1860E+03
      2.086  0.0000E+00  0.1860E+03
      2.129  0.0000E+00  0.1860E+03
      2.173  0.0000E+00  0.1860E+03
      2.216  0.0000E+00  0.1860E+03
      2.259  0.0000E+00  0.1860E+03
      2.302  0.0000E+00  0.1860E+03
      2.345  0.8243E-01  0.1860E+03
      2.388  0.5526E+03  0.2098E+03
      2.431  0.3838E+01  0.2100E+03
      2.474  0.0000E+00  0.2100E+03
      2.518  0.0000E+00  0.2100E+03
      2.561  0.0000E+00  0.2100E+03
      2.604  0.0000E+00  0.2100E+03
      2.647  0.0000E+00  0.2100E+03
      2.690  0.0000E+00  0.2100E+03
      2.733  0.0000E+00  0.2100E+03
      2.776  0.6291E-08  0.2100E+03
      2.819  0.1524E+03  0.2166E+03
      2.863  0.4041E+03  0.2340E+03
      2.906  0.1824E+00  0.2340E+03
      2.949  0.3699E+03  0.2500E+03
      2.992  0.9362E+00  0.2500E+03
      3.035  0.0000E+00  0.2500E+03
      3.078  0.0000E+00  0.2500E+03
      3.121  0.0000E+00  0.2500E+03
      3.164  0.0000E+00  0.2500E+03
      3.208  0.0000E+00  0.2500E+03
      3.251  0.0000E+00  0.2500E+03
      3.294  0.0000E+00  0.2500E+03
      3.337  0.0000E+00  0.2500E+03
      3.380  0.0000E+00  0.2500E+03
      3.423  0.0000E+00  0.2500E+03
      3.466  0.0000E+00  0.2500E+03
      3.509  0.0000E+00  0.2500E+03
      3.553  0.0000E+00  0.2500E+03
      3.596  0.4936E-06  0.2500E+03
      3.639  0.8652E+02  0.2537E+03
      3.682  0.5260E+02  0.2560E+03
      3.725  0.0000E+00  0.2560E+03
      3.768  0.2916E-04  0.2560E+03
      3.811  0.1183E+03  0.2611E+03
      3.854  0.2078E+02  0.2620E+03
      3.898  0.0000E+00  0.2620E+03
      3.941  0.7723E-14  0.2620E+03
      3.984  0.1836E+01  0.2621E+03
      4.027  0.1373E+03  0.2680E+03
      4.070  0.7304E-02  0.2680E+03
      4.113  0.0000E+00  0.2680E+03
      4.156  0.0000E+00  0.2680E+03
      4.200  0.0000E+00  0.2680E+03
      4.243  0.0000E+00  0.2680E+03
      4.286  0.0000E+00  0.2680E+03
      4.329  0.0000E+00  0.2680E+03
      4.372  0.0000E+00  0.2680E+03
      4.415  0.0000E+00  0.2680E+03
      4.458  0.0000E+00  0.2680E+03
      4.501  0.0000E+00  0.2680E+03
      4.545  0.0000E+00  0.2680E+03
      4.588  0.0000E+00  0.2680E+03
      4.631  0.0000E+00  0.2680E+03
      4.674  0.0000E+00  0.2680E+03
      4.717  0.0000E+00  0.2680E+03
      4.760  0.1344E-08  0.2680E+03
      4.803  0.6624E+02  0.2709E+03
      4.846  0.2155E+03  0.2802E+03
      4.890  0.1820E+03  0.2880E+03
      4.933  0.5293E-02  0.2880E+03
      4.976  0.0000E+00  0.2880E+03
      5.019  0.0000E+00  0.2880E+03
      5.062  0.0000E+00  0.2880E+03
      5.105  0.0000E+00  0.2880E+03
      5.148  0.0000E+00  0.2880E+03
      5.191  0.0000E+00  0.2880E+03
      5.235  0.0000E+00  0.2880E+03
      5.278  0.0000E+00  0.2880E+03
      5.321  0.0000E+00  0.2880E+03
      5.364  0.3878E+00  0.2880E+03
      5.407  0.7193E+03  0.3190E+03
      5.450  0.1150E+03  0.3240E+03
      5.493  0.3141E+02  0.3254E+03
      5.536  0.1496E+02  0.3260E+03
      5.580  0.0000E+00  0.3260E+03
      5.623  0.0000E+00  0.3260E+03
      5.666  0.0000E+00  0.3260E+03
      5.709  0.0000E+00  0.3260E+03
      5.752  0.0000E+00  0.3260E+03
      5.795  0.0000E+00  0.3260E+03
      5.838  0.0000E+00  0.3260E+03
      5.881  0.0000E+00  0.3260E+03
      5.925  0.0000E+00  0.3260E+03
      5.968  0.0000E+00  0.3260E+03
      6.011  0.0000E+00  0.3260E+03
      6.054  0.0000E+00  0.3260E+03
      6.097  0.1020E-10  0.3260E+03
      6.140  0.2890E+02  0.3272E+03
      6.183  0.4808E+03  0.3480E+03
      6.227  0.4061E+00  0.3480E+03
      6.270  0.2339E+01  0.3481E+03
      6.313  0.1368E+03  0.3540E+03
      6.356  0.5167E-02  0.3540E+03
      6.399  0.0000E+00  0.3540E+03
      6.442  0.0000E+00  0.3540E+03
      6.485  0.0000E+00  0.3540E+03
      6.528  0.0000E+00  0.3540E+03
      6.572  0.0000E+00  0.3540E+03
      6.615  0.0000E+00  0.3540E+03
      6.658  0.0000E+00  0.3540E+03
      6.701  0.0000E+00  0.3540E+03
      6.744  0.0000E+00  0.3540E+03
      6.787  0.0000E+00  0.3540E+03
      6.830  0.0000E+00  0.3540E+03
      6.873  0.0000E+00  0.3540E+03
