 running on    2 total cores
 distrk:  each k-point on    1 cores,    2 groups
 distr:  one band on    1 cores,    1 groups
 using from now: INCAR     
 vasp.5.4.4.18Apr17-6-g9f103f2a35 (build Apr 28 2017 11:12:57) complex          
  
 POSCAR found type information on POSCAR  Si Mg
 POSCAR found :  2 types and      96 ions
 scaLAPACK will be used

 ----------------------------------------------------------------------------- 
|                                                                             |
|           W    W    AA    RRRRR   N    N  II  N    N   GGGG   !!!           |
|           W    W   A  A   R    R  NN   N  II  NN   N  G    G  !!!           |
|           W    W  A    A  R    R  N N  N  II  N N  N  G       !!!           |
|           W WW W  AAAAAA  RRRRR   N  N N  II  N  N N  G  GGG   !            |
|           WW  WW  A    A  R   R   N   NN  II  N   NN  G    G                |
|           W    W  A    A  R    R  N    N  II  N    N   GGGG   !!!           |
|                                                                             |
|      You have enabled k-point parallelism (KPAR>1).                         |
|      This developmental code was originally  written by Paul Kent at ORNL,  |
|      and carefully double checked in Vienna.                                |
|      GW as well as linear response parallelism added by Martijn Marsman     |
|      and Georg Kresse.                                                      |
|      Carefully verify results versus KPAR=1.                                |
|      Report problems to Paul Kent and Vienna.                               |
|                                                                             |
 ----------------------------------------------------------------------------- 


 ----------------------------------------------------------------------------- 
|                                                                             |
|  ADVICE TO THIS USER RUNNING 'VASP/VAMP'   (HEAR YOUR MASTER'S VOICE ...):  |
|                                                                             |
|      You have a (more or less) 'large supercell' and for larger cells       |
|      it might be more efficient to use real space projection opertators     |
|      So try LREAL= Auto  in the INCAR   file.                               |
|      Mind:          For very  accurate calculation you might also keep the  |
|      reciprocal projection scheme          (i.e. LREAL=.FALSE.)             |
|                                                                             |
 ----------------------------------------------------------------------------- 

 LDA part: xc-table for Pade appr. of Perdew
 POSCAR, INCAR and KPOINTS ok, starting setup
 FFT: planning ...
 WAVECAR not read
 entering main loop
       N       E                     dE             d eps       ncg     rms          rms(c)
DAV:   1     0.311503155437E+03    0.31150E+03   -0.56801E+04   354   0.659E+02
DAV:   2    -0.254531471466E+03   -0.56603E+03   -0.52614E+03   419   0.114E+02
DAV:   3    -0.298424776263E+03   -0.43893E+02   -0.43075E+02   436   0.282E+01
DAV:   4    -0.299370101329E+03   -0.94533E+00   -0.94146E+00   412   0.484E+00
DAV:   5    -0.299396907476E+03   -0.26806E-01   -0.26790E-01   436   0.807E-01    0.215E+01
DAV:   6    -0.282078949126E+03    0.17318E+02   -0.36242E+01   363   0.696E+00    0.125E+01
DAV:   7    -0.279577422724E+03    0.25015E+01   -0.16207E+01   394   0.484E+00    0.510E+00
DAV:   8    -0.279588412448E+03   -0.10990E-01   -0.96745E-01   370   0.137E+00    0.895E-01
DAV:   9    -0.279586884229E+03    0.15282E-02   -0.15048E-02   420   0.200E-01    0.854E-01
DAV:  10    -0.279587340200E+03   -0.45597E-03   -0.57298E-03   378   0.979E-02    0.352E-01
DAV:  11    -0.279589024269E+03   -0.16841E-02   -0.11276E-02   362   0.152E-01    0.526E-01
DAV:  12    -0.279588794816E+03    0.22945E-03   -0.41629E-04   396   0.314E-02    0.333E-01
DAV:  13    -0.279588539645E+03    0.25517E-03   -0.63655E-04   404   0.295E-02    0.745E-02
DAV:  14    -0.279588522702E+03    0.16943E-04   -0.22442E-04   404   0.182E-02    0.756E-02
DAV:  15    -0.279588524908E+03   -0.22060E-05   -0.89364E-06   404   0.491E-03    0.742E-02
DAV:  16    -0.279588523708E+03    0.11995E-05   -0.16183E-05   396   0.501E-03    0.212E-02
DAV:  17    -0.279588524558E+03   -0.85010E-06   -0.23584E-06   404   0.197E-03    0.103E-02
DAV:  18    -0.279588524393E+03    0.16581E-06   -0.12773E-07   404   0.515E-04    0.122E-02
DAV:  19    -0.279588525071E+03   -0.67811E-06   -0.61869E-07   404   0.931E-04    0.365E-03
DAV:  20    -0.279588525408E+03   -0.33777E-06   -0.13211E-07   404   0.449E-04    0.472E-04
DAV:  21    -0.279588525403E+03    0.57171E-08   -0.52054E-09   228   0.111E-04
   1 F= -.27958853E+03 E0= -.27958853E+03  d E =-.360986E-15
