 vasp.5.4.4.18Apr17-6-g9f103f2a35 (build Apr 28 2017 11:12:57) complex          
  
 executed on             LinuxIFC date 2018.06.27  22:16:30
 running on    2 total cores
 distrk:  each k-point on    1 cores,    2 groups
 distr:  one band on NCORES_PER_BAND=   1 cores,    1 groups


--------------------------------------------------------------------------------------------------------


 INCAR:
 POTCAR:    PAW_PBE Si 05Jan2001                  
 POTCAR:    PAW_PBE Mg 13Apr2007                  

 ----------------------------------------------------------------------------- 
|                                                                             |
|           W    W    AA    RRRRR   N    N  II  N    N   GGGG   !!!           |
|           W    W   A  A   R    R  NN   N  II  NN   N  G    G  !!!           |
|           W    W  A    A  R    R  N N  N  II  N N  N  G       !!!           |
|           W WW W  AAAAAA  RRRRR   N  N N  II  N  N N  G  GGG   !            |
|           WW  WW  A    A  R   R   N   NN  II  N   NN  G    G                |
|           W    W  A    A  R    R  N    N  II  N    N   GGGG   !!!           |
|                                                                             |
|      You have enabled k-point parallelism (KPAR>1).                         |
|      This developmental code was originally  written by Paul Kent at ORNL,  |
|      and carefully double checked in Vienna.                                |
|      GW as well as linear response parallelism added by Martijn Marsman     |
|      and Georg Kresse.                                                      |
|      Carefully verify results versus KPAR=1.                                |
|      Report problems to Paul Kent and Vienna.                               |
|                                                                             |
 ----------------------------------------------------------------------------- 

 POTCAR:    PAW_PBE Si 05Jan2001                  
   VRHFIN =Si: s2p2                                                             
   LEXCH  = PE                                                                  
   EATOM  =   103.0669 eV,    7.5752 Ry                                         
                                                                                
   TITEL  = PAW_PBE Si 05Jan2001                                                
   LULTRA =        F    use ultrasoft PP ?                                      
   IUNSCR =        1    unscreen: 0-lin 1-nonlin 2-no                           
   RPACOR =    1.500    partial core radius                                     
   POMASS =   28.085; ZVAL   =    4.000    mass and valenz                      
   RCORE  =    1.900    outmost cutoff radius                                   
   RWIGS  =    2.480; RWIGS  =    1.312    wigner-seitz radius (au A)           
   ENMAX  =  245.345; ENMIN  =  184.009 eV                                      
   ICORE  =        2    local potential                                         
   LCOR   =        T    correct aug charges                                     
   LPAW   =        T    paw PP                                                  
   EAUG   =  322.069                                                            
   DEXC   =    0.000                                                            
   RMAX   =    1.950    core radius for proj-oper                               
   RAUG   =    1.300    factor for augmentation sphere                          
   RDEP   =    1.993    radius for radial grids                                 
   RDEPT  =    1.837    core radius for aug-charge                              
                                                                                
   Atomic configuration                                                         
    6 entries                                                                   
     n  l   j            E        occ.                                          
     1  0  0.50     -1785.8828   2.0000                                         
     2  0  0.50      -139.4969   2.0000                                         
     2  1  1.50       -95.5546   6.0000                                         
     3  0  0.50       -10.8127   2.0000                                         
     3  1  0.50        -4.0811   2.0000                                         
     3  2  1.50        -4.0817   0.0000                                         
   Description                                                                  
     l       E           TYP  RCUT    TYP  RCUT                                 
     0    -10.8127223     23  1.900                                             
     0     -7.6451159     23  1.900                                             
     1     -4.0811372     23  1.900                                             
     1      2.4879257     23  1.900                                             
     2     -4.0817478      7  1.900                                             
  local pseudopotential read in
  partial core-charges read in
  partial kinetic energy density read in
  atomic valenz-charges read in
  non local Contribution for L=           0  read in
    real space projection operators read in
  non local Contribution for L=           0  read in
    real space projection operators read in
  non local Contribution for L=           1  read in
    real space projection operators read in
  non local Contribution for L=           1  read in
    real space projection operators read in
    PAW grid and wavefunctions read in
 
   number of l-projection  operators is LMAX  =           4
   number of lm-projection operators is LMMAX =           8
 
 POTCAR:    PAW_PBE Mg 13Apr2007                  
   VRHFIN =Mg: s2p0                                                             
   LEXCH  = PE                                                                  
   EATOM  =    23.0369 eV,    1.6932 Ry                                         
                                                                                
   TITEL  = PAW_PBE Mg 13Apr2007                                                
   LULTRA =        F    use ultrasoft PP ?                                      
   IUNSCR =        1    unscreen: 0-lin 1-nonlin 2-no                           
   RPACOR =    1.500    partial core radius                                     
   POMASS =   24.305; ZVAL   =    2.000    mass and valenz                      
   RCORE  =    2.000    outmost cutoff radius                                   
   RWIGS  =    2.880; RWIGS  =    1.524    wigner-seitz radius (au A)           
   ENMAX  =  200.000; ENMIN  =  100.000 eV                                      
   RCLOC  =    1.506    cutoff for local pot                                    
   LCOR   =        T    correct aug charges                                     
   LPAW   =        T    paw PP                                                  
   EAUG   =  454.734                                                            
   DEXC   =    0.000                                                            
   RMAX   =    2.045    core radius for proj-oper                               
   RAUG   =    1.300    factor for augmentation sphere                          
   RDEP   =    2.025    radius for radial grids                                 
   RDEPT  =    1.942    core radius for aug-charge                              
                                                                                
   Atomic configuration                                                         
    6 entries                                                                   
     n  l   j            E        occ.                                          
     1  0  0.50     -1259.6230   2.0000                                         
     2  0  0.50       -79.8442   2.0000                                         
     2  1  1.50       -46.6121   6.0000                                         
     3  0  0.50        -4.7055   2.0000                                         
     3  1  0.50        -1.3660   0.0000                                         
     3  2  1.50        -1.3606   0.0000                                         
   Description                                                                  
     l       E           TYP  RCUT    TYP  RCUT                                 
     0     -4.7054661     23  2.000                                             
     0     27.2116520     23  2.000                                             
     1      1.3605826     23  2.000                                             
     1     27.2116520     23  2.000                                             
     2     -1.3605826     23  2.000                                             
  local pseudopotential read in
  partial core-charges read in
  partial kinetic energy density read in
  atomic valenz-charges read in
  non local Contribution for L=           0  read in
    real space projection operators read in
  non local Contribution for L=           0  read in
    real space projection operators read in
  non local Contribution for L=           1  read in
    real space projection operators read in
  non local Contribution for L=           1  read in
    real space projection operators read in
  non local Contribution for L=           2  read in
    real space projection operators read in
    PAW grid and wavefunctions read in
 
   number of l-projection  operators is LMAX  =           5
   number of lm-projection operators is LMMAX =          13
 

 ----------------------------------------------------------------------------- 
|                                                                             |
|  ADVICE TO THIS USER RUNNING 'VASP/VAMP'   (HEAR YOUR MASTER'S VOICE ...):  |
|                                                                             |
|      You have a (more or less) 'large supercell' and for larger cells       |
|      it might be more efficient to use real space projection opertators     |
|      So try LREAL= Auto  in the INCAR   file.                               |
|      Mind:          For very  accurate calculation you might also keep the  |
|      reciprocal projection scheme          (i.e. LREAL=.FALSE.)             |
|                                                                             |
 ----------------------------------------------------------------------------- 

  PAW_PBE Si 05Jan2001                  :
 energy of atom  1       EATOM= -103.0669
 kinetic energy error for atom=    0.0035 (will be added to EATOM!!)
  PAW_PBE Mg 13Apr2007                  :
 energy of atom  2       EATOM=  -23.0369
 kinetic energy error for atom=    0.0003 (will be added to EATOM!!)
 
 
 POSCAR: generated by phonopy                    
  positions in direct lattice
  No initial velocities read in
 exchange correlation table for  LEXCH =        8
   RHO(1)=    0.500       N(1)  =     2000
   RHO(2)=  100.500       N(2)  =     4000
 


--------------------------------------------------------------------------------------------------------


 ion  position               nearest neighbor table
   1  0.001  0.000  0.000-  33 2.75  51 2.75  69 2.75  87 2.75  42 2.76  78 2.76  60 2.76  96 2.76

   2  0.500  0.000  0.000-  34 2.75  41 2.75  52 2.75  59 2.75  70 2.75  77 2.75  88 2.75  95 2.75

   3  0.000  0.500  0.000-  35 2.75  44 2.75  49 2.75  58 2.75  71 2.75  80 2.75  85 2.75  94 2.75

   4  0.500  0.500  0.000-  36 2.75  43 2.75  50 2.75  57 2.75  72 2.75  79 2.75  86 2.75  93 2.75

   5  0.000  0.000  0.500-  37 2.75  46 2.75  55 2.75  64 2.75  65 2.75  74 2.75  83 2.75  92 2.75

   6  0.500  0.000  0.500-  38 2.75  45 2.75  56 2.75  63 2.75  66 2.75  73 2.75  84 2.75  91 2.75

   7  0.000  0.500  0.500-  39 2.75  48 2.75  53 2.75  62 2.75  67 2.75  76 2.75  81 2.75  90 2.75

   8  0.500  0.500  0.500-  40 2.75  47 2.75  54 2.75  61 2.75  68 2.75  75 2.75  82 2.75  89 2.75

   9  0.250  0.250  0.000-  33 2.75  41 2.75  49 2.75  57 2.75  69 2.75  77 2.75  85 2.75  93 2.75

  10  0.750  0.250  0.000-  34 2.75  42 2.75  50 2.75  58 2.75  70 2.75  78 2.75  86 2.75  94 2.75

  11  0.250  0.750  0.000-  35 2.75  43 2.75  51 2.75  59 2.75  71 2.75  79 2.75  87 2.75  95 2.75

  12  0.750  0.750  0.000-  36 2.75  44 2.75  52 2.75  60 2.75  72 2.75  80 2.75  88 2.75  96 2.75

  13  0.250  0.250  0.500-  37 2.75  45 2.75  53 2.75  61 2.75  65 2.75  73 2.75  81 2.75  89 2.75

  14  0.750  0.250  0.500-  38 2.75  46 2.75  54 2.75  62 2.75  66 2.75  74 2.75  82 2.75  90 2.75

  15  0.250  0.750  0.500-  39 2.75  47 2.75  55 2.75  63 2.75  67 2.75  75 2.75  83 2.75  91 2.75

  16  0.750  0.750  0.500-  40 2.75  48 2.75  56 2.75  64 2.75  68 2.75  76 2.75  84 2.75  92 2.75

  17  0.250  0.000  0.250-  33 2.75  41 2.75  51 2.75  59 2.75  65 2.75  73 2.75  83 2.75  91 2.75

  18  0.750  0.000  0.250-  34 2.75  42 2.75  52 2.75  60 2.75  66 2.75  74 2.75  84 2.75  92 2.75

  19  0.250  0.500  0.250-  35 2.75  43 2.75  49 2.75  57 2.75  67 2.75  75 2.75  81 2.75  89 2.75

  20  0.750  0.500  0.250-  36 2.75  44 2.75  50 2.75  58 2.75  68 2.75  76 2.75  82 2.75  90 2.75

  21  0.250  0.000  0.750-  37 2.75  45 2.75  55 2.75  63 2.75  69 2.75  77 2.75  87 2.75  95 2.75

  22  0.750  0.000  0.750-  38 2.75  46 2.75  56 2.75  64 2.75  70 2.75  78 2.75  88 2.75  96 2.75

  23  0.250  0.500  0.750-  39 2.75  47 2.75  53 2.75  61 2.75  71 2.75  79 2.75  85 2.75  93 2.75

  24  0.750  0.500  0.750-  40 2.75  48 2.75  54 2.75  62 2.75  72 2.75  80 2.75  86 2.75  94 2.75

  25  0.000  0.250  0.250-  33 2.75  42 2.75  49 2.75  58 2.75  65 2.75  74 2.75  81 2.75  90 2.75

  26  0.500  0.250  0.250-  34 2.75  41 2.75  50 2.75  57 2.75  66 2.75  73 2.75  82 2.75  89 2.75

  27  0.000  0.750  0.250-  35 2.75  44 2.75  51 2.75  60 2.75  67 2.75  76 2.75  83 2.75  92 2.75

  28  0.500  0.750  0.250-  36 2.75  43 2.75  52 2.75  59 2.75  68 2.75  75 2.75  84 2.75  91 2.75

  29  0.000  0.250  0.750-  37 2.75  46 2.75  53 2.75  62 2.75  69 2.75  78 2.75  85 2.75  94 2.75

  30  0.500  0.250  0.750-  38 2.75  45 2.75  54 2.75  61 2.75  70 2.75  77 2.75  86 2.75  93 2.75

  31  0.000  0.750  0.750-  39 2.75  48 2.75  55 2.75  64 2.75  71 2.75  80 2.75  87 2.75  96 2.75

  32  0.500  0.750  0.750-  40 2.75  47 2.75  56 2.75  63 2.75  72 2.75  79 2.75  88 2.75  95 2.75

  33  0.125  0.125  0.125-   1 2.75   9 2.75  17 2.75  25 2.75  41 3.18  42 3.18  49 3.18  51 3.18
                            65 3.18  69 3.18
  34  0.625  0.125  0.125-   2 2.75  10 2.75  18 2.75  26 2.75  41 3.18  42 3.18  50 3.18  52 3.18
                            66 3.18  70 3.18
  35  0.125  0.625  0.125-   3 2.75  11 2.75  19 2.75  27 2.75  43 3.18  44 3.18  49 3.18  51 3.18
                            67 3.18  71 3.18
  36  0.625  0.625  0.125-   4 2.75  12 2.75  20 2.75  28 2.75  43 3.18  44 3.18  50 3.18  52 3.18
                            68 3.18  72 3.18
  37  0.125  0.125  0.625-   5 2.75  13 2.75  21 2.75  29 2.75  45 3.18  46 3.18  53 3.18  55 3.18
                            65 3.18  69 3.18
  38  0.625  0.125  0.625-   6 2.75  14 2.75  22 2.75  30 2.75  45 3.18  46 3.18  54 3.18  56 3.18
                            66 3.18  70 3.18
  39  0.125  0.625  0.625-   7 2.75  15 2.75  23 2.75  31 2.75  47 3.18  48 3.18  53 3.18  55 3.18
                            67 3.18  71 3.18
  40  0.625  0.625  0.625-   8 2.75  16 2.75  24 2.75  32 2.75  47 3.18  48 3.18  54 3.18  56 3.18
                            68 3.18  72 3.18
  41  0.375  0.125  0.125-   2 2.75   9 2.75  17 2.75  26 2.75  33 3.18  34 3.18  57 3.18  59 3.18
                            73 3.18  77 3.18
  42  0.875  0.125  0.125-  10 2.75  18 2.75  25 2.75   1 2.76  33 3.18  34 3.18  58 3.18  60 3.18
                            74 3.18  78 3.18
  43  0.375  0.625  0.125-   4 2.75  11 2.75  19 2.75  28 2.75  35 3.18  36 3.18  57 3.18  59 3.18
                            75 3.18  79 3.18
  44  0.875  0.625  0.125-   3 2.75  12 2.75  20 2.75  27 2.75  35 3.18  36 3.18  58 3.18  60 3.18
                            76 3.18  80 3.18
  45  0.375  0.125  0.625-   6 2.75  13 2.75  21 2.75  30 2.75  37 3.18  38 3.18  61 3.18  63 3.18
                            73 3.18  77 3.18
  46  0.875  0.125  0.625-   5 2.75  14 2.75  22 2.75  29 2.75  37 3.18  38 3.18  62 3.18  64 3.18
                            74 3.18  78 3.18
  47  0.375  0.625  0.625-   8 2.75  15 2.75  23 2.75  32 2.75  39 3.18  40 3.18  61 3.18  63 3.18
                            75 3.18  79 3.18
  48  0.875  0.625  0.625-   7 2.75  16 2.75  24 2.75  31 2.75  39 3.18  40 3.18  62 3.18  64 3.18
                            76 3.18  80 3.18
  49  0.125  0.375  0.125-   3 2.75   9 2.75  19 2.75  25 2.75  33 3.18  35 3.18  57 3.18  58 3.18
                            81 3.18  85 3.18
  50  0.625  0.375  0.125-   4 2.75  10 2.75  20 2.75  26 2.75  34 3.18  36 3.18  57 3.18  58 3.18
                            82 3.18  86 3.18
  51  0.125  0.875  0.125-   1 2.75  11 2.75  17 2.75  27 2.75  33 3.18  35 3.18  59 3.18  60 3.18
                            83 3.18  87 3.18
  52  0.625  0.875  0.125-   2 2.75  12 2.75  18 2.75  28 2.75  34 3.18  36 3.18  59 3.18  60 3.18
                            84 3.18  88 3.18
  53  0.125  0.375  0.625-   7 2.75  13 2.75  23 2.75  29 2.75  37 3.18  39 3.18  61 3.18  62 3.18
                            81 3.18  85 3.18
  54  0.625  0.375  0.625-   8 2.75  14 2.75  24 2.75  30 2.75  38 3.18  40 3.18  61 3.18  62 3.18
                            82 3.18  86 3.18
  55  0.125  0.875  0.625-   5 2.75  15 2.75  21 2.75  31 2.75  37 3.18  39 3.18  63 3.18  64 3.18
                            83 3.18  87 3.18
  56  0.625  0.875  0.625-   6 2.75  16 2.75  22 2.75  32 2.75  38 3.18  40 3.18  63 3.18  64 3.18
                            84 3.18  88 3.18
  57  0.375  0.375  0.125-   4 2.75   9 2.75  19 2.75  26 2.75  41 3.18  43 3.18  49 3.18  50 3.18
                            89 3.18  93 3.18
  58  0.875  0.375  0.125-   3 2.75  10 2.75  20 2.75  25 2.75  42 3.18  44 3.18  49 3.18  50 3.18
                            90 3.18  94 3.18
  59  0.375  0.875  0.125-   2 2.75  11 2.75  17 2.75  28 2.75  41 3.18  43 3.18  51 3.18  52 3.18
                            91 3.18  95 3.18
  60  0.875  0.875  0.125-  12 2.75  18 2.75  27 2.75   1 2.76  42 3.18  44 3.18  51 3.18  52 3.18
                            92 3.18  96 3.18
  61  0.375  0.375  0.625-   8 2.75  13 2.75  23 2.75  30 2.75  45 3.18  47 3.18  53 3.18  54 3.18
                            89 3.18  93 3.18
  62  0.875  0.375  0.625-   7 2.75  14 2.75  24 2.75  29 2.75  46 3.18  48 3.18  53 3.18  54 3.18
                            90 3.18  94 3.18
  63  0.375  0.875  0.625-   6 2.75  15 2.75  21 2.75  32 2.75  45 3.18  47 3.18  55 3.18  56 3.18
                            91 3.18  95 3.18
  64  0.875  0.875  0.625-   5 2.75  16 2.75  22 2.75  31 2.75  46 3.18  48 3.18  55 3.18  56 3.18
                            92 3.18  96 3.18
  65  0.125  0.125  0.375-   5 2.75  13 2.75  17 2.75  25 2.75  33 3.18  37 3.18  73 3.18  74 3.18
                            81 3.18  83 3.18
  66  0.625  0.125  0.375-   6 2.75  14 2.75  18 2.75  26 2.75  34 3.18  38 3.18  73 3.18  74 3.18
                            82 3.18  84 3.18
  67  0.125  0.625  0.375-   7 2.75  15 2.75  19 2.75  27 2.75  35 3.18  39 3.18  75 3.18  76 3.18
                            81 3.18  83 3.18
  68  0.625  0.625  0.375-   8 2.75  16 2.75  20 2.75  28 2.75  36 3.18  40 3.18  75 3.18  76 3.18
                            82 3.18  84 3.18
  69  0.125  0.125  0.875-   1 2.75   9 2.75  21 2.75  29 2.75  33 3.18  37 3.18  77 3.18  78 3.18
                            85 3.18  87 3.18
  70  0.625  0.125  0.875-   2 2.75  10 2.75  22 2.75  30 2.75  34 3.18  38 3.18  77 3.18  78 3.18
                            86 3.18  88 3.18
  71  0.125  0.625  0.875-   3 2.75  11 2.75  23 2.75  31 2.75  35 3.18  39 3.18  79 3.18  80 3.18
                            85 3.18  87 3.18
  72  0.625  0.625  0.875-   4 2.75  12 2.75  24 2.75  32 2.75  36 3.18  40 3.18  79 3.18  80 3.18
                            86 3.18  88 3.18
  73  0.375  0.125  0.375-   6 2.75  13 2.75  17 2.75  26 2.75  41 3.18  45 3.18  65 3.18  66 3.18
                            89 3.18  91 3.18
  74  0.875  0.125  0.375-   5 2.75  14 2.75  18 2.75  25 2.75  42 3.18  46 3.18  65 3.18  66 3.18
                            90 3.18  92 3.18
  75  0.375  0.625  0.375-   8 2.75  15 2.75  19 2.75  28 2.75  43 3.18  47 3.18  67 3.18  68 3.18
                            89 3.18  91 3.18
  76  0.875  0.625  0.375-   7 2.75  16 2.75  20 2.75  27 2.75  44 3.18  48 3.18  67 3.18  68 3.18
                            90 3.18  92 3.18
  77  0.375  0.125  0.875-   2 2.75   9 2.75  21 2.75  30 2.75  41 3.18  45 3.18  69 3.18  70 3.18
                            93 3.18  95 3.18
  78  0.875  0.125  0.875-  10 2.75  22 2.75  29 2.75   1 2.76  42 3.18  46 3.18  69 3.18  70 3.18
                            94 3.18  96 3.18
  79  0.375  0.625  0.875-   4 2.75  11 2.75  23 2.75  32 2.75  43 3.18  47 3.18  71 3.18  72 3.18
                            93 3.18  95 3.18
  80  0.875  0.625  0.875-   3 2.75  12 2.75  24 2.75  31 2.75  44 3.18  48 3.18  71 3.18  72 3.18
                            94 3.18  96 3.18
  81  0.125  0.375  0.375-   7 2.75  13 2.75  19 2.75  25 2.75  49 3.18  53 3.18  65 3.18  67 3.18
                            89 3.18  90 3.18
  82  0.625  0.375  0.375-   8 2.75  14 2.75  20 2.75  26 2.75  50 3.18  54 3.18  66 3.18  68 3.18
                            89 3.18  90 3.18
  83  0.125  0.875  0.375-   5 2.75  15 2.75  17 2.75  27 2.75  51 3.18  55 3.18  65 3.18  67 3.18
                            91 3.18  92 3.18
  84  0.625  0.875  0.375-   6 2.75  16 2.75  18 2.75  28 2.75  52 3.18  56 3.18  66 3.18  68 3.18
                            91 3.18  92 3.18
  85  0.125  0.375  0.875-   3 2.75   9 2.75  23 2.75  29 2.75  49 3.18  53 3.18  69 3.18  71 3.18
                            93 3.18  94 3.18
  86  0.625  0.375  0.875-   4 2.75  10 2.75  24 2.75  30 2.75  50 3.18  54 3.18  70 3.18  72 3.18
                            93 3.18  94 3.18
  87  0.125  0.875  0.875-   1 2.75  11 2.75  21 2.75  31 2.75  51 3.18  55 3.18  69 3.18  71 3.18
                            95 3.18  96 3.18
  88  0.625  0.875  0.875-   2 2.75  12 2.75  22 2.75  32 2.75  52 3.18  56 3.18  70 3.18  72 3.18
                            95 3.18  96 3.18
  89  0.375  0.375  0.375-   8 2.75  13 2.75  19 2.75  26 2.75  57 3.18  61 3.18  73 3.18  75 3.18
                            81 3.18  82 3.18
  90  0.875  0.375  0.375-   7 2.75  14 2.75  20 2.75  25 2.75  58 3.18  62 3.18  74 3.18  76 3.18
                            81 3.18  82 3.18
  91  0.375  0.875  0.375-   6 2.75  15 2.75  17 2.75  28 2.75  59 3.18  63 3.18  73 3.18  75 3.18
                            83 3.18  84 3.18
  92  0.875  0.875  0.375-   5 2.75  16 2.75  18 2.75  27 2.75  60 3.18  64 3.18  74 3.18  76 3.18
                            83 3.18  84 3.18
  93  0.375  0.375  0.875-   4 2.75   9 2.75  23 2.75  30 2.75  57 3.18  61 3.18  77 3.18  79 3.18
                            85 3.18  86 3.18
  94  0.875  0.375  0.875-   3 2.75  10 2.75  24 2.75  29 2.75  58 3.18  62 3.18  78 3.18  80 3.18
                            85 3.18  86 3.18
  95  0.375  0.875  0.875-   2 2.75  11 2.75  21 2.75  32 2.75  59 3.18  63 3.18  77 3.18  79 3.18
                            87 3.18  88 3.18
  96  0.875  0.875  0.875-  12 2.75  22 2.75  31 2.75   1 2.76  60 3.18  64 3.18  78 3.18  80 3.18
                            87 3.18  88 3.18
 
  LATTYP: Found a simple cubic cell.
 ALAT       =    12.7112924482
  
  Lattice vectors:
  
 A1 = (  12.7112924482,   0.0000000000,   0.0000000000)
 A2 = (   0.0000000000,  12.7112924482,   0.0000000000)
 A3 = (   0.0000000000,   0.0000000000,  12.7112924482)


Analysis of symmetry for initial positions (statically):
=====================================================================
 Subroutine PRICEL returns:
 Original cell was already a primitive cell.
 

 Routine SETGRP: Setting up the symmetry group for a 
 simple cubic supercell.


 Subroutine GETGRP returns: Found  8 space group operations
 (whereof  8 operations were pure point group operations)
 out of a pool of 48 trial point group operations.


The static configuration has the point symmetry C_4v.


Analysis of symmetry for dynamics (positions and initial velocities):
=====================================================================
 Subroutine PRICEL returns:
 Original cell was already a primitive cell.
 

 Routine SETGRP: Setting up the symmetry group for a 
 simple cubic supercell.


 Subroutine GETGRP returns: Found  8 space group operations
 (whereof  8 operations were pure point group operations)
 out of a pool of 48 trial point group operations.


The dynamic configuration has the point symmetry C_4v.


 Subroutine INISYM returns: Found  8 space group operations
 (whereof  8 operations are pure point group operations),
 and found     1 'primitive' translations

 
 
 KPOINTS: Automatic mesh                          

Automatic generation of k-mesh.
Space group operators:
 irot       det(A)        alpha          n_x          n_y          n_z        tau_x        tau_y        tau_z
    1     1.000000     0.000001     1.000000     0.000000     0.000000     0.000000     0.000000     0.000000
    2    -1.000000   180.000000     0.000000     0.707107     0.707107     0.000000     0.000000     0.000000
    3    -1.000000   180.000000     0.000000     0.000000     1.000000     0.000000     0.000000     0.000000
    4     1.000000    90.000000    -1.000000     0.000000     0.000000     0.000000     0.000000     0.000000
    5     1.000000   180.000000     1.000000     0.000000     0.000000     0.000000     0.000000     0.000000
    6     1.000000    90.000000     1.000000     0.000000     0.000000     0.000000     0.000000     0.000000
    7    -1.000000   180.000000     0.000000     1.000000     0.000000     0.000000     0.000000     0.000000
    8    -1.000000   180.000000     0.000000    -0.707107     0.707107     0.000000     0.000000     0.000000
 
 Subroutine IBZKPT returns following result:
 ===========================================
 
 Found      1 irreducible k-points:
 
 Following reciprocal coordinates:
            Coordinates               Weight
  0.000000  0.000000  0.000000      1.000000
 
 Following cartesian coordinates:
            Coordinates               Weight
  0.000000  0.000000  0.000000      1.000000
 


--------------------------------------------------------------------------------------------------------




 Dimension of arrays:
   k-points           NKPTS =      1   k-points in BZ     NKDIM =      1   number of bands    NBANDS=    177
   number of dos      NEDOS =    301   number of ions     NIONS =     96
   non local maximal  LDIM  =      5   non local SUM 2l+1 LMDIM =     13
   total plane-waves  NPLWV = 343000
   max r-space proj   IRMAX =      1   max aug-charges    IRDMAX=   7293
   dimension x,y,z NGX =    70 NGY =   70 NGZ =   70
   dimension x,y,z NGXF=   140 NGYF=  140 NGZF=  140
   support grid    NGXF=   140 NGYF=  140 NGZF=  140
   ions per type =              32  64
   NGX,Y,Z   is equivalent  to a cutoff of   9.16,  9.16,  9.16 a.u.
   NGXF,Y,Z  is equivalent  to a cutoff of  18.31, 18.31, 18.31 a.u.

 SYSTEM =  unknown system                          
 POSCAR =  generated by phonopy                    

 Startparameter for this run:
   NWRITE =      2    write-flag & timer
   PREC   = accura    normal or accurate (medium, high low for compatibility)
   ISTART =      0    job   : 0-new  1-cont  2-samecut
   ICHARG =      2    charge: 1-file 2-atom 10-const
   ISPIN  =      1    spin polarized calculation?
   LNONCOLLINEAR =      F non collinear calculations
   LSORBIT =      F    spin-orbit coupling
   INIWAV =      1    electr: 0-lowe 1-rand  2-diag
   LASPH  =      F    aspherical Exc in radial PAW
   METAGGA=      F    non-selfconsistent MetaGGA calc.

 Electronic Relaxation 1
   ENCUT  =  270.0 eV  19.84 Ry    4.45 a.u.  17.03 17.03 17.03*2*pi/ulx,y,z
   ENINI  =  270.0     initial cutoff
   ENAUG  =  454.7 eV  augmentation charge cutoff
   NELM   =     60;   NELMIN=  2; NELMDL= -5     # of ELM steps 
   EDIFF  = 0.1E-07   stopping-criterion for ELM
   LREAL  =      F    real-space projection
   NLSPLINE    = F    spline interpolate recip. space projectors
   LCOMPAT=      F    compatible to vasp.4.4
   GGA_COMPAT  = T    GGA compatible to vasp.4.4-vasp.4.6
   LMAXPAW     = -100 max onsite density
   LMAXMIX     =    2 max onsite mixed and CHGCAR
   VOSKOWN=      0    Vosko Wilk Nusair interpolation
   ROPT   =    0.00000   0.00000
 Ionic relaxation
   EDIFFG = 0.1E-06   stopping-criterion for IOM
   NSW    =      0    number of steps for IOM
   NBLOCK =      1;   KBLOCK =      1    inner block; outer block 
   IBRION =     -1    ionic relax: 0-MD 1-quasi-New 2-CG
   NFREE  =      0    steps in history (QN), initial steepest desc. (CG)
   ISIF   =      2    stress and relaxation
   IWAVPR =     10    prediction:  0-non 1-charg 2-wave 3-comb
   ISYM   =      2    0-nonsym 1-usesym 2-fastsym
   LCORR  =      T    Harris-Foulkes like correction to forces

   POTIM  = 0.5000    time-step for ionic-motion
   TEIN   =    0.0    initial temperature
   TEBEG  =    0.0;   TEEND  =   0.0 temperature during run
   SMASS  =  -3.00    Nose mass-parameter (am)
   estimated Nose-frequenzy (Omega)   =  0.10E-29 period in steps =****** mass=  -0.369E-26a.u.
   SCALEE = 1.0000    scale energy and forces
   NPACO  =    256;   APACO  = 16.0  distance and # of slots for P.C.
   PSTRESS=    0.0 pullay stress

  Mass of Ions in am
   POMASS =  28.09 24.30
  Ionic Valenz
   ZVAL   =   4.00  2.00
  Atomic Wigner-Seitz radii
   RWIGS  =  -1.00 -1.00
  virtual crystal weights 
   VCA    =   1.00  1.00
   NELECT =     256.0000    total number of electrons
   NUPDOWN=      -1.0000    fix difference up-down

 DOS related values:
   EMIN   =  10.00;   EMAX   =-10.00  energy-range for DOS
   EFERMI =   0.00
   ISMEAR =     0;   SIGMA  =   0.01  broadening in eV -4-tet -1-fermi 0-gaus

 Electronic relaxation 2 (details)
   IALGO  =     38    algorithm
   LDIAG  =      T    sub-space diagonalisation (order eigenvalues)
   LSUBROT=      F    optimize rotation matrix (better conditioning)
   TURBO    =      0    0=normal 1=particle mesh
   IRESTART =      0    0=no restart 2=restart with 2 vectors
   NREBOOT  =      0    no. of reboots
   NMIN     =      0    reboot dimension
   EREF     =   0.00    reference energy to select bands
   IMIX   =      4    mixing-type and parameters
     AMIX     =   0.40;   BMIX     =  1.00
     AMIX_MAG =   1.60;   BMIX_MAG =  1.00
     AMIN     =   0.10
     WC   =   100.;   INIMIX=   1;  MIXPRE=   1;  MAXMIX= -45

 Intra band minimization:
   WEIMIN = 0.0000     energy-eigenvalue tresh-hold
   EBREAK =  0.14E-10  absolut break condition
   DEPER  =   0.30     relativ break condition  

   TIME   =   0.40     timestep for ELM

  volume/ion in A,a.u.               =      21.39       144.38
  Fermi-wavevector in a.u.,A,eV,Ry     =   0.817771  1.545363  9.098891  0.668750
  Thomas-Fermi vector in A             =   1.928279
 
 Write flags
   LWAVE        =      F    write WAVECAR
   LDOWNSAMPLE  =      F    k-point downsampling of WAVECAR
   LCHARG       =      F    write CHGCAR
   LVTOT        =      F    write LOCPOT, total local potential
   LVHAR        =      F    write LOCPOT, Hartree potential only
   LELF         =      F    write electronic localiz. function (ELF)
   LORBIT       =      0    0 simple, 1 ext, 2 COOP (PROOUT), +10 PAW based schemes


 Dipole corrections
   LMONO  =      F    monopole corrections only (constant potential shift)
   LDIPOL =      F    correct potential (dipole corrections)
   IDIPOL =      0    1-x, 2-y, 3-z, 4-all directions 
   EPSILON=  1.0000000 bulk dielectric constant

 Exchange correlation treatment:
   GGA     =    --    GGA type
   LEXCH   =     8    internal setting for exchange type
   VOSKOWN=      0    Vosko Wilk Nusair interpolation
   LHFCALC =     F    Hartree Fock is set to
   LHFONE  =     F    Hartree Fock one center treatment
   AEXX    =    0.0000 exact exchange contribution

 Linear response parameters
   LEPSILON=     F    determine dielectric tensor
   LRPA    =     F    only Hartree local field effects (RPA)
   LNABLA  =     F    use nabla operator in PAW spheres
   LVEL    =     F    velocity operator in full k-point grid
   LINTERFAST=   F  fast interpolation
   KINTER  =     0    interpolate to denser k-point grid
   CSHIFT  =0.1000    complex shift for real part using Kramers Kronig
   OMEGAMAX=  -1.0    maximum frequency
   DEG_THRESHOLD= 0.2000000E-02 threshold for treating states as degnerate
   RTIME   =   -0.100 relaxation time in fs
  (WPLASMAI=    0.000 imaginary part of plasma frequency in eV, 0.658/RTIME)
   DFIELD  = 0.0000000 0.0000000 0.0000000 field for delta impulse in time
 
 Orbital magnetization related:
   ORBITALMAG=     F  switch on orbital magnetization
   LCHIMAG   =     F  perturbation theory with respect to B field
   DQ        =  0.001000  dq finite difference perturbation B field
   LLRAUG    =     F  two centre corrections for induced B field



--------------------------------------------------------------------------------------------------------


 Static calculation
 charge density and potential will be updated during run
 non-spin polarized calculation
 Variant of blocked Davidson
 Davidson routine will perform the subspace rotation
 perform sub-space diagonalisation
    after iterative eigenvector-optimisation
 modified Broyden-mixing scheme, WC =      100.0
 initial mixing is a Kerker type mixing with AMIX =  0.4000 and BMIX =      1.0000
 Hartree-type preconditioning will be used
 using additional bands           49
 reciprocal scheme for non local part
 use partial core corrections
 calculate Harris-corrections to forces 
   (improved forces if not selfconsistent)
 use gradient corrections 
 use of overlap-Matrix (Vanderbilt PP)
 Gauss-broadening in eV      SIGMA  =   0.01


--------------------------------------------------------------------------------------------------------


  energy-cutoff  :      270.00
  volume of cell :     2053.85
      direct lattice vectors                 reciprocal lattice vectors
    12.711292448  0.000000000  0.000000000     0.078670206  0.000000000  0.000000000
     0.000000000 12.711292448  0.000000000     0.000000000  0.078670206  0.000000000
     0.000000000  0.000000000 12.711292448     0.000000000  0.000000000  0.078670206

  length of vectors
    12.711292448 12.711292448 12.711292448     0.078670206  0.078670206  0.078670206


 
 k-points in units of 2pi/SCALE and weight: Automatic mesh                          
   0.00000000  0.00000000  0.00000000       1.000
 
 k-points in reciprocal lattice and weights: Automatic mesh                          
   0.00000000  0.00000000  0.00000000       1.000
 
 position of ions in fractional coordinates (direct lattice) 
   0.00078670  0.00000000  0.00000000
   0.50000000  0.00000000  0.00000000
   0.00000000  0.50000000  0.00000000
   0.50000000  0.50000000  0.00000000
   0.00000000  0.00000000  0.50000000
   0.50000000  0.00000000  0.50000000
   0.00000000  0.50000000  0.50000000
   0.50000000  0.50000000  0.50000000
   0.25000000  0.25000000  0.00000000
   0.75000000  0.25000000  0.00000000
   0.25000000  0.75000000  0.00000000
   0.75000000  0.75000000  0.00000000
   0.25000000  0.25000000  0.50000000
   0.75000000  0.25000000  0.50000000
   0.25000000  0.75000000  0.50000000
   0.75000000  0.75000000  0.50000000
   0.25000000  0.00000000  0.25000000
   0.75000000  0.00000000  0.25000000
   0.25000000  0.50000000  0.25000000
   0.75000000  0.50000000  0.25000000
   0.25000000  0.00000000  0.75000000
   0.75000000  0.00000000  0.75000000
   0.25000000  0.50000000  0.75000000
   0.75000000  0.50000000  0.75000000
   0.00000000  0.25000000  0.25000000
   0.50000000  0.25000000  0.25000000
   0.00000000  0.75000000  0.25000000
   0.50000000  0.75000000  0.25000000
   0.00000000  0.25000000  0.75000000
   0.50000000  0.25000000  0.75000000
   0.00000000  0.75000000  0.75000000
   0.50000000  0.75000000  0.75000000
   0.12500000  0.12500000  0.12500000
   0.62500000  0.12500000  0.12500000
   0.12500000  0.62500000  0.12500000
   0.62500000  0.62500000  0.12500000
   0.12500000  0.12500000  0.62500000
   0.62500000  0.12500000  0.62500000
   0.12500000  0.62500000  0.62500000
   0.62500000  0.62500000  0.62500000
   0.37500000  0.12500000  0.12500000
   0.87500000  0.12500000  0.12500000
   0.37500000  0.62500000  0.12500000
   0.87500000  0.62500000  0.12500000
   0.37500000  0.12500000  0.62500000
   0.87500000  0.12500000  0.62500000
   0.37500000  0.62500000  0.62500000
   0.87500000  0.62500000  0.62500000
   0.12500000  0.37500000  0.12500000
   0.62500000  0.37500000  0.12500000
   0.12500000  0.87500000  0.12500000
   0.62500000  0.87500000  0.12500000
   0.12500000  0.37500000  0.62500000
   0.62500000  0.37500000  0.62500000
   0.12500000  0.87500000  0.62500000
   0.62500000  0.87500000  0.62500000
   0.37500000  0.37500000  0.12500000
   0.87500000  0.37500000  0.12500000
   0.37500000  0.87500000  0.12500000
   0.87500000  0.87500000  0.12500000
   0.37500000  0.37500000  0.62500000
   0.87500000  0.37500000  0.62500000
   0.37500000  0.87500000  0.62500000
   0.87500000  0.87500000  0.62500000
   0.12500000  0.12500000  0.37500000
   0.62500000  0.12500000  0.37500000
   0.12500000  0.62500000  0.37500000
   0.62500000  0.62500000  0.37500000
   0.12500000  0.12500000  0.87500000
   0.62500000  0.12500000  0.87500000
   0.12500000  0.62500000  0.87500000
   0.62500000  0.62500000  0.87500000
   0.37500000  0.12500000  0.37500000
   0.87500000  0.12500000  0.37500000
   0.37500000  0.62500000  0.37500000
   0.87500000  0.62500000  0.37500000
   0.37500000  0.12500000  0.87500000
   0.87500000  0.12500000  0.87500000
   0.37500000  0.62500000  0.87500000
   0.87500000  0.62500000  0.87500000
   0.12500000  0.37500000  0.37500000
   0.62500000  0.37500000  0.37500000
   0.12500000  0.87500000  0.37500000
   0.62500000  0.87500000  0.37500000
   0.12500000  0.37500000  0.87500000
   0.62500000  0.37500000  0.87500000
   0.12500000  0.87500000  0.87500000
   0.62500000  0.87500000  0.87500000
   0.37500000  0.37500000  0.37500000
   0.87500000  0.37500000  0.37500000
   0.37500000  0.87500000  0.37500000
   0.87500000  0.87500000  0.37500000
   0.37500000  0.37500000  0.87500000
   0.87500000  0.37500000  0.87500000
   0.37500000  0.87500000  0.87500000
   0.87500000  0.87500000  0.87500000
 
 position of ions in cartesian coordinates  (Angst):
   0.01000000  0.00000000  0.00000000
   6.35564622  0.00000000  0.00000000
   0.00000000  6.35564622  0.00000000
   6.35564622  6.35564622  0.00000000
   0.00000000  0.00000000  6.35564622
   6.35564622  0.00000000  6.35564622
   0.00000000  6.35564622  6.35564622
   6.35564622  6.35564622  6.35564622
   3.17782311  3.17782311  0.00000000
   9.53346934  3.17782311  0.00000000
   3.17782311  9.53346934  0.00000000
   9.53346934  9.53346934  0.00000000
   3.17782311  3.17782311  6.35564622
   9.53346934  3.17782311  6.35564622
   3.17782311  9.53346934  6.35564622
   9.53346934  9.53346934  6.35564622
   3.17782311  0.00000000  3.17782311
   9.53346934  0.00000000  3.17782311
   3.17782311  6.35564622  3.17782311
   9.53346934  6.35564622  3.17782311
   3.17782311  0.00000000  9.53346934
   9.53346934  0.00000000  9.53346934
   3.17782311  6.35564622  9.53346934
   9.53346934  6.35564622  9.53346934
   0.00000000  3.17782311  3.17782311
   6.35564622  3.17782311  3.17782311
   0.00000000  9.53346934  3.17782311
   6.35564622  9.53346934  3.17782311
   0.00000000  3.17782311  9.53346934
   6.35564622  3.17782311  9.53346934
   0.00000000  9.53346934  9.53346934
   6.35564622  9.53346934  9.53346934
   1.58891156  1.58891156  1.58891156
   7.94455778  1.58891156  1.58891156
   1.58891156  7.94455778  1.58891156
   7.94455778  7.94455778  1.58891156
   1.58891156  1.58891156  7.94455778
   7.94455778  1.58891156  7.94455778
   1.58891156  7.94455778  7.94455778
   7.94455778  7.94455778  7.94455778
   4.76673467  1.58891156  1.58891156
  11.12238089  1.58891156  1.58891156
   4.76673467  7.94455778  1.58891156
  11.12238089  7.94455778  1.58891156
   4.76673467  1.58891156  7.94455778
  11.12238089  1.58891156  7.94455778
   4.76673467  7.94455778  7.94455778
  11.12238089  7.94455778  7.94455778
   1.58891156  4.76673467  1.58891156
   7.94455778  4.76673467  1.58891156
   1.58891156 11.12238089  1.58891156
   7.94455778 11.12238089  1.58891156
   1.58891156  4.76673467  7.94455778
   7.94455778  4.76673467  7.94455778
   1.58891156 11.12238089  7.94455778
   7.94455778 11.12238089  7.94455778
   4.76673467  4.76673467  1.58891156
  11.12238089  4.76673467  1.58891156
   4.76673467 11.12238089  1.58891156
  11.12238089 11.12238089  1.58891156
   4.76673467  4.76673467  7.94455778
  11.12238089  4.76673467  7.94455778
   4.76673467 11.12238089  7.94455778
  11.12238089 11.12238089  7.94455778
   1.58891156  1.58891156  4.76673467
   7.94455778  1.58891156  4.76673467
   1.58891156  7.94455778  4.76673467
   7.94455778  7.94455778  4.76673467
   1.58891156  1.58891156 11.12238089
   7.94455778  1.58891156 11.12238089
   1.58891156  7.94455778 11.12238089
   7.94455778  7.94455778 11.12238089
   4.76673467  1.58891156  4.76673467
  11.12238089  1.58891156  4.76673467
   4.76673467  7.94455778  4.76673467
  11.12238089  7.94455778  4.76673467
   4.76673467  1.58891156 11.12238089
  11.12238089  1.58891156 11.12238089
   4.76673467  7.94455778 11.12238089
  11.12238089  7.94455778 11.12238089
   1.58891156  4.76673467  4.76673467
   7.94455778  4.76673467  4.76673467
   1.58891156 11.12238089  4.76673467
   7.94455778 11.12238089  4.76673467
   1.58891156  4.76673467 11.12238089
   7.94455778  4.76673467 11.12238089
   1.58891156 11.12238089 11.12238089
   7.94455778 11.12238089 11.12238089
   4.76673467  4.76673467  4.76673467
  11.12238089  4.76673467  4.76673467
   4.76673467 11.12238089  4.76673467
  11.12238089 11.12238089  4.76673467
   4.76673467  4.76673467 11.12238089
  11.12238089  4.76673467 11.12238089
   4.76673467 11.12238089 11.12238089
  11.12238089 11.12238089 11.12238089
 


--------------------------------------------------------------------------------------------------------


 k-point  1 :   0.0000 0.0000 0.0000  plane waves:   20719

 maximum and minimum number of plane-waves per node :     20719    20719

 maximum number of plane-waves:     20719
 maximum index in each direction: 
   IXMAX=   17   IYMAX=   17   IZMAX=   17
   IXMIN=  -17   IYMIN=  -17   IZMIN=  -17


 serial   3D FFT for wavefunctions
 parallel 3D FFT for charge:
    minimum data exchange during FFTs selected (reduces bandwidth)


 total amount of memory used by VASP MPI-rank0   392398. kBytes
=======================================================================

   base      :      30000. kBytes
   nonl-proj :      36133. kBytes
   fftplans  :      94700. kBytes
   grid      :     169030. kBytes
   one-center:        778. kBytes
   wavefun   :      61757. kBytes
 
     INWAV:  cpu time    0.0000: real time    0.0003
 Broyden mixing: mesh for mixing (old mesh)
   NGX = 35   NGY = 35   NGZ = 35
  (NGX  =140   NGY  =140   NGZ  =140)
  gives a total of  42875 points

 initial charge density was supplied:
 charge density of overlapping atoms calculated
 number of electron     256.0000000 magnetization 
 keeping initial charge density in first step


--------------------------------------------------------------------------------------------------------


 Maximum index for augmentation-charges         6872 (set IRDMAX)


--------------------------------------------------------------------------------------------------------


 First call to EWALD:  gamma=   0.139
 Maximum number of real-space cells 3x 3x 3
 Maximum number of reciprocal cells 3x 3x 3

    FEWALD:  cpu time    0.0240: real time    0.0237


--------------------------------------- Iteration      1(   1)  ---------------------------------------


    POTLOK:  cpu time    1.2721: real time    1.2756
    SETDIJ:  cpu time    0.1280: real time    0.1314
     EDDAV:  cpu time   25.9736: real time   26.0265
       DOS:  cpu time    0.0000: real time    0.0005
    --------------------------------------------
      LOOP:  cpu time   27.3737: real time   27.4340

 eigenvalue-minimisations  :   354
 total energy-change (2. order) : 0.3115032E+03  (-0.5680068E+04)
 number of electron     256.0000000 magnetization 
 augmentation part      256.0000000 magnetization 

 Free energy of the ion-electron system (eV)
  ---------------------------------------------------
  alpha Z        PSCENC =       213.07712613
  Ewald energy   TEWEN  =     -5235.19827608
  -Hartree energ DENC   =      -333.86771510
  -exchange      EXHF   =         0.00000000
  -V(xc)+E(xc)   XCENC  =     -3430.69745334
  PAW double counting   =      6999.59008484    -3117.38992839
  entropy T*S    EENTRO =        -0.00000083
  eigenvalues    EBANDS =       443.61971243
  atomic energy  EATOM  =      4772.36960577
  Solvation  Ediel_sol  =         0.00000000
  ---------------------------------------------------
  free energy    TOTEN  =       311.50315544 eV

  energy without entropy =      311.50315626  energy(sigma->0) =      311.50315585


--------------------------------------------------------------------------------------------------------




--------------------------------------- Iteration      1(   2)  ---------------------------------------


     EDDAV:  cpu time   29.5538: real time   29.6073
       DOS:  cpu time    0.0000: real time    0.0003
    --------------------------------------------
      LOOP:  cpu time   29.5538: real time   29.6076

 eigenvalue-minimisations  :   419
 total energy-change (2. order) :-0.5660346E+03  (-0.5261412E+03)
 number of electron     256.0000000 magnetization 
 augmentation part      256.0000000 magnetization 

 Free energy of the ion-electron system (eV)
  ---------------------------------------------------
  alpha Z        PSCENC =       213.07712613
  Ewald energy   TEWEN  =     -5235.19827608
  -Hartree energ DENC   =      -333.86771510
  -exchange      EXHF   =         0.00000000
  -V(xc)+E(xc)   XCENC  =     -3430.69745334
  PAW double counting   =      6999.59008484    -3117.38992839
  entropy T*S    EENTRO =        -0.00000000
  eigenvalues    EBANDS =      -122.41491530
  atomic energy  EATOM  =      4772.36960577
  Solvation  Ediel_sol  =         0.00000000
  ---------------------------------------------------
  free energy    TOTEN  =      -254.53147147 eV

  energy without entropy =     -254.53147147  energy(sigma->0) =     -254.53147147


--------------------------------------------------------------------------------------------------------




--------------------------------------- Iteration      1(   3)  ---------------------------------------


     EDDAV:  cpu time   30.5099: real time   30.5679
       DOS:  cpu time    0.0000: real time    0.0003
    --------------------------------------------
      LOOP:  cpu time   30.5099: real time   30.5681

 eigenvalue-minimisations  :   436
 total energy-change (2. order) :-0.4389330E+02  (-0.4307529E+02)
 number of electron     256.0000000 magnetization 
 augmentation part      256.0000000 magnetization 

 Free energy of the ion-electron system (eV)
  ---------------------------------------------------
  alpha Z        PSCENC =       213.07712613
  Ewald energy   TEWEN  =     -5235.19827608
  -Hartree energ DENC   =      -333.86771510
  -exchange      EXHF   =         0.00000000
  -V(xc)+E(xc)   XCENC  =     -3430.69745334
  PAW double counting   =      6999.59008484    -3117.38992839
  entropy T*S    EENTRO =        -0.00000000
  eigenvalues    EBANDS =      -166.30822010
  atomic energy  EATOM  =      4772.36960577
  Solvation  Ediel_sol  =         0.00000000
  ---------------------------------------------------
  free energy    TOTEN  =      -298.42477626 eV

  energy without entropy =     -298.42477626  energy(sigma->0) =     -298.42477626


--------------------------------------------------------------------------------------------------------




--------------------------------------- Iteration      1(   4)  ---------------------------------------


     EDDAV:  cpu time   29.1738: real time   29.2276
       DOS:  cpu time    0.0000: real time    0.0002
    --------------------------------------------
      LOOP:  cpu time   29.1738: real time   29.2279

 eigenvalue-minimisations  :   412
 total energy-change (2. order) :-0.9453251E+00  (-0.9414553E+00)
 number of electron     256.0000000 magnetization 
 augmentation part      256.0000000 magnetization 

 Free energy of the ion-electron system (eV)
  ---------------------------------------------------
  alpha Z        PSCENC =       213.07712613
  Ewald energy   TEWEN  =     -5235.19827608
  -Hartree energ DENC   =      -333.86771510
  -exchange      EXHF   =         0.00000000
  -V(xc)+E(xc)   XCENC  =     -3430.69745334
  PAW double counting   =      6999.59008484    -3117.38992839
  entropy T*S    EENTRO =        -0.00000000
  eigenvalues    EBANDS =      -167.25354516
  atomic energy  EATOM  =      4772.36960577
  Solvation  Ediel_sol  =         0.00000000
  ---------------------------------------------------
  free energy    TOTEN  =      -299.37010133 eV

  energy without entropy =     -299.37010133  energy(sigma->0) =     -299.37010133


--------------------------------------------------------------------------------------------------------




--------------------------------------- Iteration      1(   5)  ---------------------------------------


     EDDAV:  cpu time   30.5099: real time   30.5659
       DOS:  cpu time    0.0000: real time    0.0003
    CHARGE:  cpu time    0.7760: real time    0.7780
    MIXING:  cpu time    0.0440: real time    0.0437
    --------------------------------------------
      LOOP:  cpu time   31.3300: real time   31.3880

 eigenvalue-minimisations  :   436
 total energy-change (2. order) :-0.2680615E-01  (-0.2678988E-01)
 number of electron     256.0000073 magnetization 
 augmentation part       -7.8587579 magnetization 

 Broyden mixing:
  rms(total) = 0.21496E+01    rms(broyden)= 0.21496E+01
  rms(prec ) = 0.28011E+01
  weight for this iteration     100.00

 Free energy of the ion-electron system (eV)
  ---------------------------------------------------
  alpha Z        PSCENC =       213.07712613
  Ewald energy   TEWEN  =     -5235.19827608
  -Hartree energ DENC   =      -333.86771510
  -exchange      EXHF   =         0.00000000
  -V(xc)+E(xc)   XCENC  =     -3430.69745334
  PAW double counting   =      6999.59008484    -3117.38992839
  entropy T*S    EENTRO =        -0.00000000
  eigenvalues    EBANDS =      -167.28035131
  atomic energy  EATOM  =      4772.36960577
  Solvation  Ediel_sol  =         0.00000000
  ---------------------------------------------------
  free energy    TOTEN  =      -299.39690748 eV

  energy without entropy =     -299.39690748  energy(sigma->0) =     -299.39690748


--------------------------------------------------------------------------------------------------------




--------------------------------------- Iteration      1(   6)  ---------------------------------------


    POTLOK:  cpu time    1.2521: real time    1.2525
    SETDIJ:  cpu time    0.1400: real time    0.1417
     EDDAV:  cpu time   26.4577: real time   26.5064
       DOS:  cpu time    0.0000: real time    0.0002
    CHARGE:  cpu time    0.7640: real time    0.7649
    MIXING:  cpu time    0.0440: real time    0.0451
    --------------------------------------------
      LOOP:  cpu time   28.6578: real time   28.7108

 eigenvalue-minimisations  :   363
 total energy-change (2. order) : 0.1731796E+02  (-0.3624231E+01)
 number of electron     256.0000067 magnetization 
 augmentation part       -7.1804020 magnetization 

 Broyden mixing:
  rms(total) = 0.12545E+01    rms(broyden)= 0.12545E+01
  rms(prec ) = 0.14692E+01
  weight for this iteration     100.00

 eigenvalues of (default mixing * dielectric matrix)
  average eigenvalue GAMMA=   1.9249
  1.9249

 Free energy of the ion-electron system (eV)
  ---------------------------------------------------
  alpha Z        PSCENC =       213.07712613
  Ewald energy   TEWEN  =     -5235.19827608
  -Hartree energ DENC   =      -419.76798201
  -exchange      EXHF   =         0.00000000
  -V(xc)+E(xc)   XCENC  =     -3418.20500880
  PAW double counting   =      9940.88332693    -6062.57224945
  entropy T*S    EENTRO =        -0.00000000
  eigenvalues    EBANDS =       -72.66549162
  atomic energy  EATOM  =      4772.36960577
  Solvation  Ediel_sol  =         0.00000000
  ---------------------------------------------------
  free energy    TOTEN  =      -282.07894913 eV

  energy without entropy =     -282.07894913  energy(sigma->0) =     -282.07894913


--------------------------------------------------------------------------------------------------------




--------------------------------------- Iteration      1(   7)  ---------------------------------------


    POTLOK:  cpu time    1.2521: real time    1.2523
    SETDIJ:  cpu time    0.1400: real time    0.1431
     EDDAV:  cpu time   28.1778: real time   28.2283
       DOS:  cpu time    0.0000: real time    0.0003
    CHARGE:  cpu time    0.7800: real time    0.7790
    MIXING:  cpu time    0.0440: real time    0.0461
    --------------------------------------------
      LOOP:  cpu time   30.3939: real time   30.4490

 eigenvalue-minimisations  :   394
 total energy-change (2. order) : 0.2501526E+01  (-0.1620697E+01)
 number of electron     256.0000064 magnetization 
 augmentation part       -6.6785729 magnetization 

 Broyden mixing:
  rms(total) = 0.51020E+00    rms(broyden)= 0.51019E+00
  rms(prec ) = 0.54781E+00
  weight for this iteration     100.00

 eigenvalues of (default mixing * dielectric matrix)
  average eigenvalue GAMMA=   2.1227
  1.6024  2.6431

 Free energy of the ion-electron system (eV)
  ---------------------------------------------------
  alpha Z        PSCENC =       213.07712613
  Ewald energy   TEWEN  =     -5235.19827608
  -Hartree energ DENC   =      -485.33807454
  -exchange      EXHF   =         0.00000000
  -V(xc)+E(xc)   XCENC  =     -3406.43650526
  PAW double counting   =     15100.95686648   -11224.49106383
  entropy T*S    EENTRO =        -0.00000000
  eigenvalues    EBANDS =       -14.51710139
  atomic energy  EATOM  =      4772.36960577
  Solvation  Ediel_sol  =         0.00000000
  ---------------------------------------------------
  free energy    TOTEN  =      -279.57742272 eV

  energy without entropy =     -279.57742272  energy(sigma->0) =     -279.57742272


--------------------------------------------------------------------------------------------------------




--------------------------------------- Iteration      1(   8)  ---------------------------------------


    POTLOK:  cpu time    1.2481: real time    1.2520
    SETDIJ:  cpu time    0.1440: real time    0.1432
     EDDAV:  cpu time   26.8417: real time   26.8906
       DOS:  cpu time    0.0000: real time    0.0002
    CHARGE:  cpu time    0.7640: real time    0.7650
    MIXING:  cpu time    0.0480: real time    0.0472
    --------------------------------------------
      LOOP:  cpu time   29.0458: real time   29.0982

 eigenvalue-minimisations  :   370
 total energy-change (2. order) :-0.1098972E-01  (-0.9674485E-01)
 number of electron     256.0000064 magnetization 
 augmentation part       -6.7332591 magnetization 

 Broyden mixing:
  rms(total) = 0.89456E-01    rms(broyden)= 0.89456E-01
  rms(prec ) = 0.95473E-01
  weight for this iteration     100.00

 eigenvalues of (default mixing * dielectric matrix)
  average eigenvalue GAMMA=   1.4651
  2.6182  1.5944  0.1827

 Free energy of the ion-electron system (eV)
  ---------------------------------------------------
  alpha Z        PSCENC =       213.07712613
  Ewald energy   TEWEN  =     -5235.19827608
  -Hartree energ DENC   =      -484.93777904
  -exchange      EXHF   =         0.00000000
  -V(xc)+E(xc)   XCENC  =     -3403.11363561
  PAW double counting   =     18638.32193207   -14760.47339165
  entropy T*S    EENTRO =        -0.00000000
  eigenvalues    EBANDS =       -19.63399403
  atomic energy  EATOM  =      4772.36960577
  Solvation  Ediel_sol  =         0.00000000
  ---------------------------------------------------
  free energy    TOTEN  =      -279.58841245 eV

  energy without entropy =     -279.58841245  energy(sigma->0) =     -279.58841245


--------------------------------------------------------------------------------------------------------




--------------------------------------- Iteration      1(   9)  ---------------------------------------


    POTLOK:  cpu time    1.2481: real time    1.2518
    SETDIJ:  cpu time    0.1440: real time    0.1430
     EDDAV:  cpu time   29.6379: real time   29.6958
       DOS:  cpu time    0.0040: real time    0.0012
    CHARGE:  cpu time    0.7600: real time    0.7648
    MIXING:  cpu time    0.0480: real time    0.0485
    --------------------------------------------
      LOOP:  cpu time   31.8420: real time   31.9052

 eigenvalue-minimisations  :   420
 total energy-change (2. order) : 0.1528219E-02  (-0.1504800E-02)
 number of electron     256.0000064 magnetization 
 augmentation part       -6.7367915 magnetization 

 Broyden mixing:
  rms(total) = 0.85411E-01    rms(broyden)= 0.85411E-01
  rms(prec ) = 0.89912E-01
  weight for this iteration     100.00

 eigenvalues of (default mixing * dielectric matrix)
  average eigenvalue GAMMA=   1.8711
  2.0071  1.8834  1.7969  1.7969

 Free energy of the ion-electron system (eV)
  ---------------------------------------------------
  alpha Z        PSCENC =       213.07712613
  Ewald energy   TEWEN  =     -5235.19827608
  -Hartree energ DENC   =      -485.74730965
  -exchange      EXHF   =         0.00000000
  -V(xc)+E(xc)   XCENC  =     -3403.06460573
  PAW double counting   =     18497.47383355   -14619.68559903
  entropy T*S    EENTRO =        -0.00000000
  eigenvalues    EBANDS =       -18.81165919
  atomic energy  EATOM  =      4772.36960577
  Solvation  Ediel_sol  =         0.00000000
  ---------------------------------------------------
  free energy    TOTEN  =      -279.58688423 eV

  energy without entropy =     -279.58688423  energy(sigma->0) =     -279.58688423


--------------------------------------------------------------------------------------------------------




--------------------------------------- Iteration      1(  10)  ---------------------------------------


    POTLOK:  cpu time    1.2521: real time    1.2516
    SETDIJ:  cpu time    0.1400: real time    0.1431
     EDDAV:  cpu time   27.2897: real time   27.3395
       DOS:  cpu time    0.0000: real time    0.0002
    CHARGE:  cpu time    0.7640: real time    0.7649
    MIXING:  cpu time    0.0520: real time    0.0502
    --------------------------------------------
      LOOP:  cpu time   29.4978: real time   29.5495

 eigenvalue-minimisations  :   378
 total energy-change (2. order) :-0.4559708E-03  (-0.5729778E-03)
 number of electron     256.0000064 magnetization 
 augmentation part       -6.7274353 magnetization 

 Broyden mixing:
  rms(total) = 0.35173E-01    rms(broyden)= 0.35173E-01
  rms(prec ) = 0.41319E-01
  weight for this iteration     100.00

 eigenvalues of (default mixing * dielectric matrix)
  average eigenvalue GAMMA=   1.8288
  2.9612  2.6237  1.3403  1.3403  0.8784

 Free energy of the ion-electron system (eV)
  ---------------------------------------------------
  alpha Z        PSCENC =       213.07712613
  Ewald energy   TEWEN  =     -5235.19827608
  -Hartree energ DENC   =      -486.79482235
  -exchange      EXHF   =         0.00000000
  -V(xc)+E(xc)   XCENC  =     -3403.09993447
  PAW double counting   =     17720.28613076   -13842.58956764
  entropy T*S    EENTRO =        -0.00000000
  eigenvalues    EBANDS =       -17.63760232
  atomic energy  EATOM  =      4772.36960577
  Solvation  Ediel_sol  =         0.00000000
  ---------------------------------------------------
  free energy    TOTEN  =      -279.58734020 eV

  energy without entropy =     -279.58734020  energy(sigma->0) =     -279.58734020


--------------------------------------------------------------------------------------------------------




--------------------------------------- Iteration      1(  11)  ---------------------------------------


    POTLOK:  cpu time    1.2481: real time    1.2519
    SETDIJ:  cpu time    0.1400: real time    0.1419
     EDDAV:  cpu time   26.4137: real time   26.4627
       DOS:  cpu time    0.0000: real time    0.0010
    CHARGE:  cpu time    0.7400: real time    0.7408
    MIXING:  cpu time    0.0520: real time    0.0522
    --------------------------------------------
      LOOP:  cpu time   28.5938: real time   28.6505

 eigenvalue-minimisations  :   362
 total energy-change (2. order) :-0.1684070E-02  (-0.1127568E-02)
 number of electron     256.0000064 magnetization 
 augmentation part       -6.7184915 magnetization 

 Broyden mixing:
  rms(total) = 0.52632E-01    rms(broyden)= 0.52632E-01
  rms(prec ) = 0.53202E-01
  weight for this iteration     100.00

 eigenvalues of (default mixing * dielectric matrix)
  average eigenvalue GAMMA=   1.6334
  2.9617  2.4882  1.5246  0.9907  0.9907  0.8447

 Free energy of the ion-electron system (eV)
  ---------------------------------------------------
  alpha Z        PSCENC =       213.07712613
  Ewald energy   TEWEN  =     -5235.19827608
  -Hartree energ DENC   =      -489.39462923
  -exchange      EXHF   =         0.00000000
  -V(xc)+E(xc)   XCENC  =     -3402.54485735
  PAW double counting   =     17505.54363609   -13627.86190265
  entropy T*S    EENTRO =        -0.00000000
  eigenvalues    EBANDS =       -15.57972695
  atomic energy  EATOM  =      4772.36960577
  Solvation  Ediel_sol  =         0.00000000
  ---------------------------------------------------
  free energy    TOTEN  =      -279.58902427 eV

  energy without entropy =     -279.58902427  energy(sigma->0) =     -279.58902427


--------------------------------------------------------------------------------------------------------




--------------------------------------- Iteration      1(  12)  ---------------------------------------


    POTLOK:  cpu time    1.2441: real time    1.2471
    SETDIJ:  cpu time    0.1520: real time    0.1511
     EDDAV:  cpu time   28.3218: real time   28.3755
       DOS:  cpu time    0.0000: real time    0.0003
    CHARGE:  cpu time    0.7400: real time    0.7405
    MIXING:  cpu time    0.0520: real time    0.0535
    --------------------------------------------
      LOOP:  cpu time   30.5099: real time   30.5679

 eigenvalue-minimisations  :   396
 total energy-change (2. order) : 0.2294532E-03  (-0.4162931E-04)
 number of electron     256.0000064 magnetization 
 augmentation part       -6.7190580 magnetization 

 Broyden mixing:
  rms(total) = 0.33340E-01    rms(broyden)= 0.33340E-01
  rms(prec ) = 0.33823E-01
  weight for this iteration     100.00

 eigenvalues of (default mixing * dielectric matrix)
  average eigenvalue GAMMA=   1.6000
  2.9743  2.5284  1.5491  1.2905  1.2905  0.9492  0.6182

 Free energy of the ion-electron system (eV)
  ---------------------------------------------------
  alpha Z        PSCENC =       213.07712613
  Ewald energy   TEWEN  =     -5235.19827608
  -Hartree energ DENC   =      -489.21577984
  -exchange      EXHF   =         0.00000000
  -V(xc)+E(xc)   XCENC  =     -3402.54329946
  PAW double counting   =     17651.10035443   -13773.40641072
  entropy T*S    EENTRO =        -0.00000000
  eigenvalues    EBANDS =       -15.77211505
  atomic energy  EATOM  =      4772.36960577
  Solvation  Ediel_sol  =         0.00000000
  ---------------------------------------------------
  free energy    TOTEN  =      -279.58879482 eV

  energy without entropy =     -279.58879482  energy(sigma->0) =     -279.58879482


--------------------------------------------------------------------------------------------------------




--------------------------------------- Iteration      1(  13)  ---------------------------------------


    POTLOK:  cpu time    1.2481: real time    1.2470
    SETDIJ:  cpu time    0.1440: real time    0.1464
     EDDAV:  cpu time   28.7738: real time   28.8273
       DOS:  cpu time    0.0000: real time    0.0002
    CHARGE:  cpu time    0.7400: real time    0.7408
    MIXING:  cpu time    0.0560: real time    0.0552
    --------------------------------------------
      LOOP:  cpu time   30.9619: real time   31.0169

 eigenvalue-minimisations  :   404
 total energy-change (2. order) : 0.2551711E-03  (-0.6365534E-04)
 number of electron     256.0000064 magnetization 
 augmentation part       -6.7222359 magnetization 

 Broyden mixing:
  rms(total) = 0.74458E-02    rms(broyden)= 0.74458E-02
  rms(prec ) = 0.76075E-02
  weight for this iteration     100.00

 eigenvalues of (default mixing * dielectric matrix)
  average eigenvalue GAMMA=   1.6450
  3.0522  2.4495  1.8826  1.5288  1.5288  0.9997  0.9997  0.7188

 Free energy of the ion-electron system (eV)
  ---------------------------------------------------
  alpha Z        PSCENC =       213.07712613
  Ewald energy   TEWEN  =     -5235.19827608
  -Hartree energ DENC   =      -488.91020335
  -exchange      EXHF   =         0.00000000
  -V(xc)+E(xc)   XCENC  =     -3402.54309957
  PAW double counting   =     17838.64477242   -13960.92597629
  entropy T*S    EENTRO =        -0.00000000
  eigenvalues    EBANDS =       -16.10248868
  atomic energy  EATOM  =      4772.36960577
  Solvation  Ediel_sol  =         0.00000000
  ---------------------------------------------------
  free energy    TOTEN  =      -279.58853964 eV

  energy without entropy =     -279.58853964  energy(sigma->0) =     -279.58853964


--------------------------------------------------------------------------------------------------------




--------------------------------------- Iteration      1(  14)  ---------------------------------------


    POTLOK:  cpu time    1.2441: real time    1.2467
    SETDIJ:  cpu time    0.1440: real time    0.1458
     EDDAV:  cpu time   28.7698: real time   28.8202
       DOS:  cpu time    0.0000: real time    0.0002
    CHARGE:  cpu time    0.7400: real time    0.7407
    MIXING:  cpu time    0.0560: real time    0.0568
    --------------------------------------------
      LOOP:  cpu time   30.9539: real time   31.0105

 eigenvalue-minimisations  :   404
 total energy-change (2. order) : 0.1694312E-04  (-0.2244227E-04)
 number of electron     256.0000064 magnetization 
 augmentation part       -6.7244532 magnetization 

 Broyden mixing:
  rms(total) = 0.75623E-02    rms(broyden)= 0.75623E-02
  rms(prec ) = 0.76544E-02
  weight for this iteration     100.00

 eigenvalues of (default mixing * dielectric matrix)
  average eigenvalue GAMMA=   1.7036
  2.9758  2.6780  2.6780  1.2683  1.2683  1.3889  1.3889  1.0058  0.6807

 Free energy of the ion-electron system (eV)
  ---------------------------------------------------
  alpha Z        PSCENC =       213.07712613
  Ewald energy   TEWEN  =     -5235.19827608
  -Hartree energ DENC   =      -488.74291077
  -exchange      EXHF   =         0.00000000
  -V(xc)+E(xc)   XCENC  =     -3402.54731782
  PAW double counting   =     17942.47823732   -14064.74582764
  entropy T*S    EENTRO =        -0.00000000
  eigenvalues    EBANDS =       -16.27915960
  atomic energy  EATOM  =      4772.36960577
  Solvation  Ediel_sol  =         0.00000000
  ---------------------------------------------------
  free energy    TOTEN  =      -279.58852270 eV

  energy without entropy =     -279.58852270  energy(sigma->0) =     -279.58852270


--------------------------------------------------------------------------------------------------------




--------------------------------------- Iteration      1(  15)  ---------------------------------------


    POTLOK:  cpu time    1.2441: real time    1.2476
    SETDIJ:  cpu time    0.1440: real time    0.1451
     EDDAV:  cpu time   28.7738: real time   28.8265
       DOS:  cpu time    0.0000: real time    0.0002
    CHARGE:  cpu time    0.7400: real time    0.7408
    MIXING:  cpu time    0.0600: real time    0.0588
    --------------------------------------------
      LOOP:  cpu time   30.9619: real time   31.0190

 eigenvalue-minimisations  :   404
 total energy-change (2. order) :-0.2205987E-05  (-0.8936362E-06)
 number of electron     256.0000064 magnetization 
 augmentation part       -6.7246203 magnetization 

 Broyden mixing:
  rms(total) = 0.74161E-02    rms(broyden)= 0.74161E-02
  rms(prec ) = 0.74928E-02
  weight for this iteration     100.00

 eigenvalues of (default mixing * dielectric matrix)
  average eigenvalue GAMMA=   1.6799
  3.1736  2.6526  2.6526  1.4596  1.4596  1.4610  1.2119  1.0896  0.9443  0.6941

 Free energy of the ion-electron system (eV)
  ---------------------------------------------------
  alpha Z        PSCENC =       213.07712613
  Ewald energy   TEWEN  =     -5235.19827608
  -Hartree energ DENC   =      -488.74189281
  -exchange      EXHF   =         0.00000000
  -V(xc)+E(xc)   XCENC  =     -3402.55153091
  PAW double counting   =     17938.47162738   -14060.73916286
  entropy T*S    EENTRO =        -0.00000000
  eigenvalues    EBANDS =       -16.27602152
  atomic energy  EATOM  =      4772.36960577
  Solvation  Ediel_sol  =         0.00000000
  ---------------------------------------------------
  free energy    TOTEN  =      -279.58852491 eV

  energy without entropy =     -279.58852491  energy(sigma->0) =     -279.58852491


--------------------------------------------------------------------------------------------------------




--------------------------------------- Iteration      1(  16)  ---------------------------------------


    POTLOK:  cpu time    1.2561: real time    1.2594
    SETDIJ:  cpu time    0.1360: real time    0.1358
     EDDAV:  cpu time   28.2298: real time   28.2820
       DOS:  cpu time    0.0000: real time    0.0003
    CHARGE:  cpu time    0.7640: real time    0.7669
    MIXING:  cpu time    0.0600: real time    0.0600
    --------------------------------------------
      LOOP:  cpu time   30.4459: real time   30.5044

 eigenvalue-minimisations  :   396
 total energy-change (2. order) : 0.1199542E-05  (-0.1618278E-05)
 number of electron     256.0000064 magnetization 
 augmentation part       -6.7241392 magnetization 

 Broyden mixing:
  rms(total) = 0.21150E-02    rms(broyden)= 0.21150E-02
  rms(prec ) = 0.21470E-02
  weight for this iteration     100.00

 eigenvalues of (default mixing * dielectric matrix)
  average eigenvalue GAMMA=   1.6468
  3.2522  2.7878  2.5401  1.5293  1.5293  1.4671  1.1504  1.1504  1.0132  1.0132
  0.6818

 Free energy of the ion-electron system (eV)
  ---------------------------------------------------
  alpha Z        PSCENC =       213.07712613
  Ewald energy   TEWEN  =     -5235.19827608
  -Hartree energ DENC   =      -488.79393727
  -exchange      EXHF   =         0.00000000
  -V(xc)+E(xc)   XCENC  =     -3402.55403102
  PAW double counting   =     17898.66747632   -14020.93891503
  entropy T*S    EENTRO =        -0.00000000
  eigenvalues    EBANDS =       -16.21757252
  atomic energy  EATOM  =      4772.36960577
  Solvation  Ediel_sol  =         0.00000000
  ---------------------------------------------------
  free energy    TOTEN  =      -279.58852371 eV

  energy without entropy =     -279.58852371  energy(sigma->0) =     -279.58852371


--------------------------------------------------------------------------------------------------------




--------------------------------------- Iteration      1(  17)  ---------------------------------------


    POTLOK:  cpu time    1.2521: real time    1.2548
    SETDIJ:  cpu time    0.1400: real time    0.1406
     EDDAV:  cpu time   28.6778: real time   28.7306
       DOS:  cpu time    0.0000: real time    0.0003
    CHARGE:  cpu time    0.7680: real time    0.7667
    MIXING:  cpu time    0.0600: real time    0.0617
    --------------------------------------------
      LOOP:  cpu time   30.8979: real time   30.9547

 eigenvalue-minimisations  :   404
 total energy-change (2. order) :-0.8501047E-06  (-0.2358414E-06)
 number of electron     256.0000064 magnetization 
 augmentation part       -6.7239169 magnetization 

 Broyden mixing:
  rms(total) = 0.10319E-02    rms(broyden)= 0.10319E-02
  rms(prec ) = 0.10434E-02
  weight for this iteration     100.00

 eigenvalues of (default mixing * dielectric matrix)
  average eigenvalue GAMMA=   1.6169
  3.2564  2.7514  2.5506  1.6478  1.6478  1.4889  1.2968  1.2968  1.0031  1.0031
  0.6939  0.7663

 Free energy of the ion-electron system (eV)
  ---------------------------------------------------
  alpha Z        PSCENC =       213.07712613
  Ewald energy   TEWEN  =     -5235.19827608
  -Hartree energ DENC   =      -488.81163790
  -exchange      EXHF   =         0.00000000
  -V(xc)+E(xc)   XCENC  =     -3402.55366070
  PAW double counting   =     17891.98315909   -14014.25575774
  entropy T*S    EENTRO =        -0.00000000
  eigenvalues    EBANDS =       -16.19908313
  atomic energy  EATOM  =      4772.36960577
  Solvation  Ediel_sol  =         0.00000000
  ---------------------------------------------------
  free energy    TOTEN  =      -279.58852456 eV

  energy without entropy =     -279.58852456  energy(sigma->0) =     -279.58852456


--------------------------------------------------------------------------------------------------------




--------------------------------------- Iteration      1(  18)  ---------------------------------------


    POTLOK:  cpu time    1.2521: real time    1.2546
    SETDIJ:  cpu time    0.1400: real time    0.1394
     EDDAV:  cpu time   28.6658: real time   28.7209
       DOS:  cpu time    0.0000: real time    0.0003
    CHARGE:  cpu time    0.7680: real time    0.7669
    MIXING:  cpu time    0.0640: real time    0.0637
    --------------------------------------------
      LOOP:  cpu time   30.8899: real time   30.9457

 eigenvalue-minimisations  :   404
 total energy-change (2. order) : 0.1658136E-06  (-0.1277317E-07)
 number of electron     256.0000064 magnetization 
 augmentation part       -6.7239318 magnetization 

 Broyden mixing:
  rms(total) = 0.12171E-02    rms(broyden)= 0.12171E-02
  rms(prec ) = 0.12310E-02
  weight for this iteration     100.00

 eigenvalues of (default mixing * dielectric matrix)
  average eigenvalue GAMMA=   1.6343
  3.3326  2.8059  2.5190  1.7697  1.7697  1.4442  1.4442  1.5259  1.0190  1.0190
  0.6836  0.9563  0.9563

 Free energy of the ion-electron system (eV)
  ---------------------------------------------------
  alpha Z        PSCENC =       213.07712613
  Ewald energy   TEWEN  =     -5235.19827608
  -Hartree energ DENC   =      -488.80996774
  -exchange      EXHF   =         0.00000000
  -V(xc)+E(xc)   XCENC  =     -3402.55350207
  PAW double counting   =     17893.71932469   -14015.99171825
  entropy T*S    EENTRO =        -0.00000000
  eigenvalues    EBANDS =       -16.20111685
  atomic energy  EATOM  =      4772.36960577
  Solvation  Ediel_sol  =         0.00000000
  ---------------------------------------------------
  free energy    TOTEN  =      -279.58852439 eV

  energy without entropy =     -279.58852439  energy(sigma->0) =     -279.58852439


--------------------------------------------------------------------------------------------------------




--------------------------------------- Iteration      1(  19)  ---------------------------------------


    POTLOK:  cpu time    1.2521: real time    1.2549
    SETDIJ:  cpu time    0.1360: real time    0.1391
     EDDAV:  cpu time   28.6738: real time   28.7251
       DOS:  cpu time    0.0000: real time    0.0003
    CHARGE:  cpu time    0.7640: real time    0.7668
    MIXING:  cpu time    0.0680: real time    0.0661
    --------------------------------------------
      LOOP:  cpu time   30.8939: real time   30.9523

 eigenvalue-minimisations  :   404
 total energy-change (2. order) :-0.6781138E-06  (-0.6186887E-07)
 number of electron     256.0000064 magnetization 
 augmentation part       -6.7238378 magnetization 

 Broyden mixing:
  rms(total) = 0.36480E-03    rms(broyden)= 0.36480E-03
  rms(prec ) = 0.36831E-03
  weight for this iteration     100.00

 eigenvalues of (default mixing * dielectric matrix)
  average eigenvalue GAMMA=   1.6130
  3.4305  2.8681  2.4915  1.5614  1.5614  1.5823  1.5823  1.5944  1.0708  1.0708
  1.0978  1.0978  0.6868  0.8851

 Free energy of the ion-electron system (eV)
  ---------------------------------------------------
  alpha Z        PSCENC =       213.07712613
  Ewald energy   TEWEN  =     -5235.19827608
  -Hartree energ DENC   =      -488.82084384
  -exchange      EXHF   =         0.00000000
  -V(xc)+E(xc)   XCENC  =     -3402.55362996
  PAW double counting   =     17887.61595546   -14009.88905393
  entropy T*S    EENTRO =        -0.00000000
  eigenvalues    EBANDS =       -16.18940863
  atomic energy  EATOM  =      4772.36960577
  Solvation  Ediel_sol  =         0.00000000
  ---------------------------------------------------
  free energy    TOTEN  =      -279.58852507 eV

  energy without entropy =     -279.58852507  energy(sigma->0) =     -279.58852507


--------------------------------------------------------------------------------------------------------




--------------------------------------- Iteration      1(  20)  ---------------------------------------


    POTLOK:  cpu time    1.2521: real time    1.2544
    SETDIJ:  cpu time    0.1400: real time    0.1407
     EDDAV:  cpu time   28.6698: real time   28.7237
       DOS:  cpu time    0.0000: real time    0.0003
    CHARGE:  cpu time    0.7640: real time    0.7667
    MIXING:  cpu time    0.0720: real time    0.0686
    --------------------------------------------
      LOOP:  cpu time   30.8979: real time   30.9543

 eigenvalue-minimisations  :   404
 total energy-change (2. order) :-0.3377718E-06  (-0.1321115E-07)
 number of electron     256.0000064 magnetization 
 augmentation part       -6.7237815 magnetization 

 Broyden mixing:
  rms(total) = 0.47167E-04    rms(broyden)= 0.47166E-04
  rms(prec ) = 0.47887E-04
  weight for this iteration     100.00

 eigenvalues of (default mixing * dielectric matrix)
  average eigenvalue GAMMA=   1.5413
  3.4203  2.8543  2.4828  1.5814  1.5814  1.5483  1.5483  1.5558  1.1701  1.1701
  1.0208  1.0208  0.7533  0.7533  0.6584

 Free energy of the ion-electron system (eV)
  ---------------------------------------------------
  alpha Z        PSCENC =       213.07712613
  Ewald energy   TEWEN  =     -5235.19827608
  -Hartree energ DENC   =      -488.82501475
  -exchange      EXHF   =         0.00000000
  -V(xc)+E(xc)   XCENC  =     -3402.55372910
  PAW double counting   =     17884.93151717   -14007.20489429
  entropy T*S    EENTRO =        -0.00000000
  eigenvalues    EBANDS =       -16.18486025
  atomic energy  EATOM  =      4772.36960577
  Solvation  Ediel_sol  =         0.00000000
  ---------------------------------------------------
  free energy    TOTEN  =      -279.58852541 eV

  energy without entropy =     -279.58852541  energy(sigma->0) =     -279.58852541


--------------------------------------------------------------------------------------------------------




[...]
   -.438E-02 0.255E-14 0.284E-02   0.573E-03 0.455E-14 -.292E-02   0.242E-02 0.331E-23 -.347E-03   0.200E-05 0.136E-13 0.163E-04
   -.444E-02 -.262E-12 -.287E-02   0.609E-03 0.799E-14 0.291E-02   0.243E-02 -.114E-23 0.358E-03   -.109E-05 0.192E-13 0.225E-05
   0.288E-01 0.580E-04 0.580E-04   -.230E-01 -.568E-04 -.568E-04   -.800E-02 -.557E-05 -.557E-05   0.216E-06 -.207E-05 -.207E-05
   -.907E-02 -.123E-04 -.123E-04   0.129E-01 0.170E-04 0.170E-04   -.389E-02 -.742E-05 -.742E-05   -.719E-06 0.145E-05 0.145E-05
   0.288E-01 -.580E-04 0.580E-04   -.230E-01 0.568E-04 -.568E-04   -.800E-02 0.557E-05 -.557E-05   0.216E-06 0.207E-05 -.207E-05
   -.907E-02 0.123E-04 -.123E-04   0.129E-01 -.170E-04 0.170E-04   -.389E-02 0.742E-05 -.742E-05   -.719E-06 -.145E-05 0.145E-05
   0.288E-01 0.580E-04 -.580E-04   -.230E-01 -.568E-04 0.568E-04   -.800E-02 -.557E-05 0.557E-05   0.216E-06 -.207E-05 0.207E-05
   -.907E-02 -.123E-04 0.123E-04   0.129E-01 0.170E-04 -.170E-04   -.389E-02 -.742E-05 0.742E-05   -.719E-06 0.145E-05 -.145E-05
   0.288E-01 -.580E-04 -.580E-04   -.230E-01 0.568E-04 0.568E-04   -.800E-02 0.557E-05 0.557E-05   0.216E-06 0.207E-05 0.207E-05
   -.907E-02 0.123E-04 0.123E-04   0.129E-01 -.170E-04 -.170E-04   -.389E-02 0.742E-05 0.742E-05   -.719E-06 -.145E-05 -.145E-05
   -.722E-02 -.658E-01 -.658E-01   0.211E-02 0.551E-01 0.551E-01   0.117E-01 0.146E-01 0.146E-01   -.752E-06 0.652E-06 0.652E-06
   -.176E-01 0.502E-02 0.502E-02   0.163E-01 -.522E-02 -.522E-02   0.582E-03 0.115E-03 0.115E-03   -.336E-05 0.422E-05 0.422E-05
   0.562E-02 0.585E-02 -.266E-02   -.466E-02 -.523E-02 0.209E-02   -.338E-03 -.384E-03 0.117E-03   -.106E-05 0.794E-06 -.761E-06
   -.656E-02 -.400E-02 0.240E-02   0.470E-02 0.252E-02 -.113E-02   0.125E-02 0.108E-02 -.647E-03   -.827E-06 -.598E-06 0.587E-06
   0.562E-02 -.266E-02 0.585E-02   -.466E-02 0.209E-02 -.523E-02   -.338E-03 0.117E-03 -.384E-03   -.106E-05 -.761E-06 0.794E-06
   -.656E-02 0.240E-02 -.400E-02   0.470E-02 -.113E-02 0.252E-02   0.125E-02 -.647E-03 0.108E-02   -.827E-06 0.587E-06 -.598E-06
   0.310E-02 0.315E-03 0.315E-03   -.235E-02 -.113E-02 -.113E-02   -.461E-03 0.636E-03 0.636E-03   -.366E-05 0.417E-05 0.417E-05
   -.277E-02 -.906E-03 -.906E-03   0.235E-02 0.816E-03 0.816E-03   0.202E-03 0.783E-04 0.783E-04   -.512E-06 0.805E-06 0.805E-06
   -.176E-01 -.508E-02 -.508E-02   0.164E-01 0.526E-02 0.526E-02   0.583E-03 -.115E-03 -.115E-03   -.591E-06 0.904E-06 0.904E-06
   -.776E-02 0.655E-01 0.655E-01   0.258E-02 -.548E-01 -.548E-01   0.117E-01 -.144E-01 -.144E-01   0.459E-05 0.392E-05 0.392E-05
   -.656E-02 0.401E-02 -.242E-02   0.469E-02 -.253E-02 0.113E-02   0.125E-02 -.108E-02 0.659E-03   0.987E-06 -.190E-06 0.220E-07
   0.557E-02 -.587E-02 0.266E-02   -.462E-02 0.525E-02 -.209E-02   -.337E-03 0.383E-03 -.115E-03   0.848E-06 0.368E-06 -.559E-06
   -.656E-02 -.242E-02 0.401E-02   0.469E-02 0.113E-02 -.253E-02   0.125E-02 0.659E-03 -.108E-02   0.987E-06 0.220E-07 -.190E-06
   0.557E-02 0.266E-02 -.587E-02   -.462E-02 -.209E-02 0.525E-02   -.337E-03 -.115E-03 0.383E-03   0.848E-06 -.559E-06 0.368E-06
   -.277E-02 0.899E-03 0.900E-03   0.234E-02 -.820E-03 -.820E-03   0.201E-03 -.769E-04 -.769E-04   0.458E-05 0.436E-05 0.436E-05
   0.307E-02 -.332E-03 -.331E-03   -.234E-02 0.113E-02 0.113E-02   -.464E-03 -.635E-03 -.635E-03   -.538E-06 0.110E-05 0.110E-05
   0.562E-02 -.585E-02 -.266E-02   -.466E-02 0.523E-02 0.209E-02   -.338E-03 0.384E-03 0.117E-03   -.106E-05 -.794E-06 -.761E-06
   -.656E-02 0.400E-02 0.240E-02   0.470E-02 -.252E-02 -.113E-02   0.125E-02 -.108E-02 -.647E-03   -.827E-06 0.598E-06 0.587E-06
   -.722E-02 0.658E-01 -.658E-01   0.211E-02 -.551E-01 0.551E-01   0.117E-01 -.146E-01 0.146E-01   -.752E-06 -.652E-06 0.652E-06
   -.176E-01 -.502E-02 0.502E-02   0.163E-01 0.522E-02 -.522E-02   0.582E-03 -.115E-03 0.115E-03   -.336E-05 -.422E-05 0.422E-05
   0.310E-02 -.315E-03 0.315E-03   -.235E-02 0.113E-02 -.113E-02   -.461E-03 -.636E-03 0.636E-03   -.366E-05 -.417E-05 0.417E-05
   -.277E-02 0.906E-03 -.906E-03   0.235E-02 -.816E-03 0.816E-03   0.202E-03 -.783E-04 0.783E-04   -.512E-06 -.805E-06 0.805E-06
   0.562E-02 0.266E-02 0.585E-02   -.466E-02 -.209E-02 -.523E-02   -.338E-03 -.117E-03 -.384E-03   -.106E-05 0.761E-06 0.794E-06
   -.656E-02 -.240E-02 -.400E-02   0.470E-02 0.113E-02 0.252E-02   0.125E-02 0.647E-03 0.108E-02   -.827E-06 -.587E-06 -.598E-06
   -.656E-02 -.401E-02 -.242E-02   0.469E-02 0.253E-02 0.113E-02   0.125E-02 0.108E-02 0.659E-03   0.987E-06 0.190E-06 0.220E-07
   0.557E-02 0.587E-02 0.266E-02   -.462E-02 -.525E-02 -.209E-02   -.337E-03 -.383E-03 -.115E-03   0.848E-06 -.368E-06 -.559E-06
   -.176E-01 0.508E-02 -.508E-02   0.164E-01 -.526E-02 0.526E-02   0.583E-03 0.115E-03 -.115E-03   -.591E-06 -.904E-06 0.904E-06
   -.775E-02 -.655E-01 0.655E-01   0.258E-02 0.548E-01 -.548E-01   0.117E-01 0.144E-01 -.144E-01   0.459E-05 -.392E-05 0.392E-05
   -.277E-02 -.899E-03 0.900E-03   0.234E-02 0.820E-03 -.820E-03   0.201E-03 0.769E-04 -.769E-04   0.458E-05 -.436E-05 0.436E-05
   0.307E-02 0.332E-03 -.331E-03   -.234E-02 -.113E-02 0.113E-02   -.464E-03 0.635E-03 -.635E-03   -.538E-06 -.110E-05 0.110E-05
   -.656E-02 0.242E-02 0.401E-02   0.469E-02 -.113E-02 -.253E-02   0.125E-02 -.659E-03 -.108E-02   0.987E-06 -.220E-07 -.190E-06
   0.557E-02 -.266E-02 -.587E-02   -.462E-02 0.209E-02 0.525E-02   -.337E-03 0.115E-03 0.383E-03   0.848E-06 0.559E-06 0.368E-06
   0.562E-02 -.266E-02 -.585E-02   -.466E-02 0.209E-02 0.523E-02   -.338E-03 0.117E-03 0.384E-03   -.106E-05 -.761E-06 -.794E-06
   -.656E-02 0.240E-02 0.400E-02   0.470E-02 -.113E-02 -.252E-02   0.125E-02 -.647E-03 -.108E-02   -.827E-06 0.587E-06 0.598E-06
   0.310E-02 0.314E-03 -.315E-03   -.235E-02 -.113E-02 0.113E-02   -.461E-03 0.636E-03 -.636E-03   -.366E-05 0.417E-05 -.417E-05
   -.277E-02 -.907E-03 0.906E-03   0.235E-02 0.816E-03 -.816E-03   0.202E-03 0.783E-04 -.783E-04   -.512E-06 0.805E-06 -.805E-06
   -.722E-02 -.658E-01 0.658E-01   0.211E-02 0.551E-01 -.551E-01   0.117E-01 0.146E-01 -.146E-01   -.752E-06 0.652E-06 -.652E-06
   -.176E-01 0.502E-02 -.502E-02   0.163E-01 -.522E-02 0.522E-02   0.582E-03 0.115E-03 -.115E-03   -.336E-05 0.422E-05 -.422E-05
   0.562E-02 0.585E-02 0.266E-02   -.466E-02 -.523E-02 -.209E-02   -.338E-03 -.384E-03 -.117E-03   -.106E-05 0.794E-06 0.761E-06
   -.656E-02 -.400E-02 -.240E-02   0.470E-02 0.252E-02 0.113E-02   0.125E-02 0.108E-02 0.647E-03   -.827E-06 -.598E-06 -.587E-06
   -.656E-02 -.242E-02 -.401E-02   0.469E-02 0.113E-02 0.253E-02   0.125E-02 0.659E-03 0.108E-02   0.987E-06 0.220E-07 0.190E-06
   0.557E-02 0.266E-02 0.587E-02   -.462E-02 -.209E-02 -.525E-02   -.337E-03 -.115E-03 -.383E-03   0.848E-06 -.559E-06 -.368E-06
   -.277E-02 0.900E-03 -.900E-03   0.234E-02 -.820E-03 0.820E-03   0.201E-03 -.769E-04 0.769E-04   0.458E-05 0.436E-05 -.436E-05
   0.307E-02 -.331E-03 0.331E-03   -.234E-02 0.113E-02 -.113E-02   -.464E-03 -.635E-03 0.635E-03   -.538E-06 0.110E-05 -.110E-05
   -.176E-01 -.508E-02 0.508E-02   0.164E-01 0.526E-02 -.526E-02   0.583E-03 -.115E-03 0.115E-03   -.591E-06 0.904E-06 -.904E-06
   -.775E-02 0.655E-01 -.655E-01   0.258E-02 -.548E-01 0.548E-01   0.117E-01 -.144E-01 0.144E-01   0.459E-05 0.392E-05 -.392E-05
   -.656E-02 0.401E-02 0.242E-02   0.469E-02 -.253E-02 -.113E-02   0.125E-02 -.108E-02 -.659E-03   0.987E-06 -.190E-06 -.220E-07
   0.557E-02 -.587E-02 -.266E-02   -.462E-02 0.525E-02 0.209E-02   -.337E-03 0.383E-03 0.115E-03   0.848E-06 0.368E-06 0.559E-06
   0.310E-02 -.314E-03 -.315E-03   -.235E-02 0.113E-02 0.113E-02   -.461E-03 -.636E-03 -.636E-03   -.366E-05 -.417E-05 -.417E-05
   -.277E-02 0.907E-03 0.906E-03   0.235E-02 -.816E-03 -.816E-03   0.202E-03 -.783E-04 -.783E-04   -.512E-06 -.805E-06 -.805E-06
   0.562E-02 0.266E-02 -.585E-02   -.466E-02 -.209E-02 0.523E-02   -.338E-03 -.117E-03 0.384E-03   -.106E-05 0.761E-06 -.794E-06
   -.656E-02 -.240E-02 0.400E-02   0.470E-02 0.113E-02 -.252E-02   0.125E-02 0.647E-03 -.108E-02   -.827E-06 -.587E-06 0.598E-06
   0.562E-02 -.585E-02 0.266E-02   -.466E-02 0.523E-02 -.209E-02   -.338E-03 0.384E-03 -.117E-03   -.106E-05 -.794E-06 0.761E-06
   -.656E-02 0.400E-02 -.240E-02   0.470E-02 -.252E-02 0.113E-02   0.125E-02 -.108E-02 0.647E-03   -.827E-06 0.598E-06 -.587E-06
   -.722E-02 0.658E-01 0.658E-01   0.211E-02 -.551E-01 -.551E-01   0.117E-01 -.146E-01 -.146E-01   -.752E-06 -.652E-06 -.652E-06
   -.176E-01 -.502E-02 -.502E-02   0.163E-01 0.522E-02 0.522E-02   0.582E-03 -.115E-03 -.115E-03   -.336E-05 -.422E-05 -.422E-05
   -.277E-02 -.900E-03 -.900E-03   0.234E-02 0.820E-03 0.820E-03   0.201E-03 0.769E-04 0.769E-04   0.458E-05 -.436E-05 -.436E-05
   0.307E-02 0.331E-03 0.331E-03   -.234E-02 -.113E-02 -.113E-02   -.464E-03 0.635E-03 0.635E-03   -.538E-06 -.110E-05 -.110E-05
   -.656E-02 0.242E-02 -.401E-02   0.469E-02 -.113E-02 0.253E-02   0.125E-02 -.659E-03 0.108E-02   0.987E-06 -.220E-07 0.190E-06
   0.557E-02 -.266E-02 0.587E-02   -.462E-02 0.209E-02 -.525E-02   -.337E-03 0.115E-03 -.383E-03   0.848E-06 0.559E-06 -.368E-06
   -.656E-02 -.401E-02 0.242E-02   0.469E-02 0.253E-02 -.113E-02   0.125E-02 0.108E-02 -.659E-03   0.987E-06 0.190E-06 -.220E-07
   0.557E-02 0.587E-02 -.266E-02   -.462E-02 -.525E-02 0.209E-02   -.337E-03 -.383E-03 0.115E-03   0.848E-06 -.368E-06 0.559E-06
   -.176E-01 0.508E-02 0.508E-02   0.164E-01 -.526E-02 -.526E-02   0.583E-03 0.115E-03 0.115E-03   -.591E-06 -.904E-06 -.904E-06
   -.776E-02 -.655E-01 -.655E-01   0.258E-02 0.548E-01 0.548E-01   0.117E-01 0.144E-01 0.144E-01   0.459E-05 -.392E-05 -.392E-05
 -----------------------------------------------------------------------------------------------
   0.884E-02 -.463E-11 0.140E-06   -.198E-14 0.256E-13 0.135E-14   -.890E-02 0.173E-17 -.520E-17   0.740E-05 0.236E-13 -.319E-13
 
 
 POSITION                                       TOTAL-FORCE (eV/Angst)
 -----------------------------------------------------------------------------------
      0.01000      0.00000      0.00000        -0.057999      0.000000     -0.000000
      6.35565      0.00000      0.00000         0.002892      0.000000     -0.000000
      0.00000      6.35565      0.00000         0.001256      0.000000     -0.000000
      6.35565      6.35565      0.00000         0.006422      0.000000     -0.000000
      0.00000      0.00000      6.35565         0.001256      0.000000     -0.000000
      6.35565      0.00000      6.35565         0.006422      0.000000     -0.000000
      0.00000      6.35565      6.35565         0.002943      0.000000     -0.000000
      6.35565      6.35565      6.35565         0.002874      0.000000     -0.000000
      3.17782      3.17782      0.00000         0.000809      0.003455     -0.000000
      9.53347      3.17782      0.00000         0.000815     -0.003445     -0.000000
      3.17782      9.53347      0.00000         0.000809     -0.003455     -0.000000
      9.53347      9.53347      0.00000         0.000815      0.003445     -0.000000
      3.17782      3.17782      6.35565        -0.001390      0.000410     -0.000000
      9.53347      3.17782      6.35565        -0.001395     -0.000406     -0.000000
      3.17782      9.53347      6.35565        -0.001390     -0.000410     -0.000000
      9.53347      9.53347      6.35565        -0.001395      0.000406     -0.000000
      3.17782      0.00000      3.17782         0.000809      0.000000      0.003455
      9.53347      0.00000      3.17782         0.000815      0.000000     -0.003445
      3.17782      6.35565      3.17782        -0.001390      0.000000      0.000410
      9.53347      6.35565      3.17782        -0.001395      0.000000     -0.000406
      3.17782      0.00000      9.53347         0.000809      0.000000     -0.003455
      9.53347      0.00000      9.53347         0.000815      0.000000      0.003445
      3.17782      6.35565      9.53347        -0.001390      0.000000     -0.000410
      9.53347      6.35565      9.53347        -0.001395      0.000000      0.000406
      0.00000      3.17782      3.17782        -0.002190     -0.000006     -0.000006
      6.35565      3.17782      3.17782        -0.000054     -0.000001     -0.000001
      0.00000      9.53347      3.17782        -0.002190      0.000006     -0.000006
      6.35565      9.53347      3.17782        -0.000054      0.000001     -0.000001
      0.00000      3.17782      9.53347        -0.002190     -0.000006      0.000006
      6.35565      3.17782      9.53347        -0.000054     -0.000001      0.000001
      0.00000      9.53347      9.53347        -0.002190      0.000006      0.000006
      6.35565      9.53347      9.53347        -0.000054      0.000001      0.000001
      1.58891      1.58891      1.58891         0.006627      0.003887      0.003887
      7.94456      1.58891      1.58891        -0.000694     -0.000080     -0.000080
      1.58891      7.94456      1.58891         0.000616      0.000234     -0.000457
      7.94456      7.94456      1.58891        -0.000607     -0.000404      0.000624
      1.58891      1.58891      7.94456         0.000616     -0.000457      0.000234
      7.94456      1.58891      7.94456        -0.000607      0.000624     -0.000404
      1.58891      7.94456      7.94456         0.000283     -0.000174     -0.000174
      7.94456      7.94456      7.94456        -0.000214     -0.000012     -0.000012
      4.76673      1.58891      1.58891        -0.000697      0.000070      0.000070
     11.12238      1.58891      1.58891         0.006512     -0.003726     -0.003726
      4.76673      7.94456      1.58891        -0.000609      0.000397     -0.000625
     11.12238      7.94456      1.58891         0.000611     -0.000242      0.000447
      4.76673      1.58891      7.94456        -0.000609     -0.000625      0.000397
     11.12238      1.58891      7.94456         0.000611      0.000447     -0.000242
      4.76673      7.94456      7.94456        -0.000218      0.000007      0.000007
     11.12238      7.94456      7.94456         0.000267      0.000168      0.000168
      1.58891      4.76673      1.58891         0.000616     -0.000234     -0.000457
      7.94456      4.76673      1.58891        -0.000607      0.000404      0.000624
      1.58891     11.12238      1.58891         0.006627     -0.003887      0.003887
      7.94456     11.12238      1.58891        -0.000694      0.000080     -0.000080
      1.58891      4.76673      7.94456         0.000283      0.000174     -0.000174
      7.94456      4.76673      7.94456        -0.000214      0.000012     -0.000012
      1.58891     11.12238      7.94456         0.000616      0.000457      0.000234
      7.94456     11.12238      7.94456        -0.000607     -0.000624     -0.000404
      4.76673      4.76673      1.58891        -0.000609     -0.000397     -0.000625
     11.12238      4.76673      1.58891         0.000611      0.000242      0.000447
      4.76673     11.12238      1.58891        -0.000697     -0.000070      0.000070
     11.12238     11.12238      1.58891         0.006512      0.003726     -0.003726
      4.76673      4.76673      7.94456        -0.000218     -0.000007      0.000007
     11.12238      4.76673      7.94456         0.000267     -0.000168      0.000168
      4.76673     11.12238      7.94456        -0.000609      0.000625      0.000397
     11.12238     11.12238      7.94456         0.000611     -0.000447     -0.000242
      1.58891      1.58891      4.76673         0.000616     -0.000457     -0.000234
      7.94456      1.58891      4.76673        -0.000607      0.000624      0.000404
      1.58891      7.94456      4.76673         0.000283     -0.000174      0.000174
      7.94456      7.94456      4.76673        -0.000214     -0.000012      0.000012
      1.58891      1.58891     11.12238         0.006627      0.003887     -0.003887
      7.94456      1.58891     11.12238        -0.000694     -0.000080      0.000080
      1.58891      7.94456     11.12238         0.000616      0.000234      0.000457
      7.94456      7.94456     11.12238        -0.000607     -0.000404     -0.000624
      4.76673      1.58891      4.76673        -0.000609     -0.000625     -0.000397
     11.12238      1.58891      4.76673         0.000611      0.000447      0.000242
      4.76673      7.94456      4.76673        -0.000218      0.000007     -0.000007
     11.12238      7.94456      4.76673         0.000267      0.000168     -0.000168
      4.76673      1.58891     11.12238        -0.000697      0.000070     -0.000070
     11.12238      1.58891     11.12238         0.006512     -0.003726      0.003726
      4.76673      7.94456     11.12238        -0.000609      0.000397      0.000625
     11.12238      7.94456     11.12238         0.000611     -0.000242     -0.000447
      1.58891      4.76673      4.76673         0.000283      0.000174      0.000174
      7.94456      4.76673      4.76673        -0.000214      0.000012      0.000012
      1.58891     11.12238      4.76673         0.000616      0.000457     -0.000234
      7.94456     11.12238      4.76673        -0.000607     -0.000624      0.000404
      1.58891      4.76673     11.12238         0.000616     -0.000234      0.000457
      7.94456      4.76673     11.12238        -0.000607      0.000404     -0.000624
      1.58891     11.12238     11.12238         0.006627     -0.003887     -0.003887
      7.94456     11.12238     11.12238        -0.000694      0.000080      0.000080
      4.76673      4.76673      4.76673        -0.000218     -0.000007     -0.000007
     11.12238      4.76673      4.76673         0.000267     -0.000168     -0.000168
      4.76673     11.12238      4.76673        -0.000609      0.000625     -0.000397
     11.12238     11.12238      4.76673         0.000611     -0.000447      0.000242
      4.76673      4.76673     11.12238        -0.000609     -0.000397      0.000625
     11.12238      4.76673     11.12238         0.000611      0.000242     -0.000447
      4.76673     11.12238     11.12238        -0.000697     -0.000070     -0.000070
     11.12238     11.12238     11.12238         0.006512      0.003726      0.003726
 -----------------------------------------------------------------------------------
    total drift:                               -0.000049     -0.000000      0.000000


--------------------------------------------------------------------------------------------------------



  FREE ENERGIE OF THE ION-ELECTRON SYSTEM (eV)
  ---------------------------------------------------
  free  energy   TOTEN  =      -279.58852540 eV

  energy  without entropy=     -279.58852540  energy(sigma->0) =     -279.58852540
 


--------------------------------------------------------------------------------------------------------


    POTLOK:  cpu time    1.3961: real time    1.4007


--------------------------------------------------------------------------------------------------------


     LOOP+:  cpu time  689.9431: real time  691.2304
    4ORBIT:  cpu time    0.0000: real time    0.0000

 total amount of memory used by VASP MPI-rank0   392398. kBytes
=======================================================================

   base      :      30000. kBytes
   nonl-proj :      36133. kBytes
   fftplans  :      94700. kBytes
   grid      :     169030. kBytes
   one-center:        778. kBytes
   wavefun   :      61757. kBytes
 
  
  
 General timing and accounting informations for this job:
 ========================================================
  
                  Total CPU time used (sec):      696.548
                            User time (sec):      695.439
                          System time (sec):        1.108
                         Elapsed time (sec):      697.950
  
                   Maximum memory used (kb):      600164.
                   Average memory used (kb):           0.
  
                          Minor page faults:       663580
                          Major page faults:            0
                 Voluntary context switches:         1017
