<?xml version="1.0" encoding="ISO-8859-1"?>
<modeling>
 <generator>
  <i name="program" type="string">vasp </i>
  <i name="version" type="string">5.4.4.18Apr17-6-g9f103f2a35  </i>
  <i name="subversion" type="string">(build Apr 28 2017 11:12:57) complex            parallel </i>
  <i name="platform" type="string">LinuxIFC </i>
  <i name="date" type="string">2018 06 27 </i>
  <i name="time" type="string">22:16:30 </i>
 </generator>
 <incar>
  <i type="string" name="PREC">accurate</i>
  <i type="int" name="IALGO">    38</i>
  <i type="int" name="IBRION">    -1</i>
  <i name="EDIFF">      0.00000001</i>
  <i name="ENCUT">    270.00000000</i>
  <i type="logical" name="LREAL"> F  </i>
  <i type="int" name="ISMEAR">     0</i>
  <i name="SIGMA">      0.01000000</i>
  <i type="logical" name="LWAVE"> F  </i>
  <i type="logical" name="LCHARG"> F  </i>
  <v type="int" name="KPOINT_BSE">    -1     0     0     0</v>
 </incar>
 <structure name="primitive_cell" >
  <crystal>
   <varray name="basis" >
    <v>      12.71129245       0.00000000       0.00000000 </v>
    <v>       0.00000000      12.71129245       0.00000000 </v>
    <v>       0.00000000       0.00000000      12.71129245 </v>
   </varray>
   <i name="volume">   2053.85193682 </i>
   <varray name="rec_basis" >
    <v>       0.07867021       0.00000000       0.00000000 </v>
    <v>       0.00000000       0.07867021       0.00000000 </v>
    <v>       0.00000000       0.00000000       0.07867021 </v>
   </varray>
  </crystal>
  <varray name="positions" >
   <v>       0.00078670       0.00000000       0.00000000 </v>
   <v>       0.12500000       0.12500000       0.12500000 </v>
   <v>       0.12500000      -0.12500000       0.12500000 </v>
   <v>       0.12500000       0.12500000      -0.12500000 </v>
   <v>       0.12500000      -0.12500000      -0.12500000 </v>
   <v>      -0.12500000       0.12500000       0.12500000 </v>
   <v>      -0.12500000      -0.12500000       0.12500000 </v>
   <v>      -0.12500000       0.12500000      -0.12500000 </v>
   <v>      -0.12500000      -0.12500000      -0.12500000 </v>
   <v>       0.25000000       0.25000000       0.00000000 </v>
   <v>       0.25000000      -0.25000000       0.00000000 </v>
   <v>       0.25000000       0.00000000       0.25000000 </v>
   <v>       0.25000000       0.00000000      -0.25000000 </v>
   <v>       0.00000000       0.25000000       0.25000000 </v>
   <v>       0.00000000      -0.25000000       0.25000000 </v>
   <v>       0.00000000       0.25000000      -0.25000000 </v>
   <v>       0.00000000      -0.25000000      -0.25000000 </v>
   <v>      -0.25000000       0.25000000       0.00000000 </v>
   <v>      -0.25000000      -0.25000000       0.00000000 </v>
   <v>      -0.25000000       0.00000000       0.25000000 </v>
   <v>      -0.25000000       0.00000000      -0.25000000 </v>
   <v>       0.37500000       0.12500000       0.12500000 </v>
   <v>       0.37500000      -0.12500000       0.12500000 </v>
   <v>       0.37500000       0.12500000      -0.12500000 </v>
   <v>       0.37500000      -0.12500000      -0.12500000 </v>
   <v>       0.12500000      -0.37500000       0.12500000 </v>
   <v>       0.12500000       0.37500000       0.12500000 </v>
   <v>       0.12500000      -0.37500000      -0.12500000 </v>
   <v>       0.12500000       0.37500000      -0.12500000 </v>
   <v>       0.12500000       0.12500000      -0.37500000 </v>
   <v>       0.12500000      -0.12500000      -0.37500000 </v>
   <v>       0.12500000       0.12500000       0.37500000 </v>
   <v>       0.12500000      -0.12500000       0.37500000 </v>
   <v>      -0.12500000      -0.37500000       0.12500000 </v>
   <v>      -0.12500000       0.12500000      -0.37500000 </v>
   <v>      -0.12500000       0.37500000       0.12500000 </v>
   <v>      -0.12500000      -0.12500000      -0.37500000 </v>
   <v>      -0.12500000       0.12500000       0.37500000 </v>
   <v>      -0.12500000      -0.37500000      -0.12500000 </v>
   <v>      -0.12500000      -0.12500000       0.37500000 </v>
   <v>      -0.12500000       0.37500000      -0.12500000 </v>
   <v>      -0.37500000       0.12500000       0.12500000 </v>
   <v>      -0.37500000      -0.12500000       0.12500000 </v>
   <v>      -0.37500000       0.12500000      -0.12500000 </v>
   <v>      -0.37500000      -0.12500000      -0.12500000 </v>
   <v>      -0.50000000       0.00000000       0.00000000 </v>
   <v>       0.00000000      -0.50000000       0.00000000 </v>
   <v>       0.00000000       0.00000000      -0.50000000 </v>
   <v>       0.37500000      -0.37500000       0.12500000 </v>
   <v>       0.37500000       0.12500000      -0.37500000 </v>
   <v>       0.37500000       0.37500000       0.12500000 </v>
   <v>       0.37500000      -0.12500000      -0.37500000 </v>
   <v>       0.37500000       0.12500000       0.37500000 </v>
   <v>       0.37500000      -0.37500000      -0.12500000 </v>
   <v>       0.37500000      -0.12500000       0.37500000 </v>
   <v>       0.37500000       0.37500000      -0.12500000 </v>
   <v>       0.12500000      -0.37500000      -0.37500000 </v>
   <v>       0.12500000       0.37500000      -0.37500000 </v>
   <v>       0.12500000      -0.37500000       0.37500000 </v>
   <v>       0.12500000       0.37500000       0.37500000 </v>
   <v>      -0.12500000      -0.37500000      -0.37500000 </v>
   <v>      -0.12500000       0.37500000      -0.37500000 </v>
   <v>      -0.12500000      -0.37500000       0.37500000 </v>
   <v>      -0.12500000       0.37500000       0.37500000 </v>
   <v>      -0.37500000      -0.37500000       0.12500000 </v>
   <v>      -0.37500000       0.12500000      -0.37500000 </v>
   <v>      -0.37500000       0.37500000       0.12500000 </v>
   <v>      -0.37500000      -0.12500000      -0.37500000 </v>
   <v>      -0.37500000       0.12500000       0.37500000 </v>
   <v>      -0.37500000      -0.37500000      -0.12500000 </v>
   <v>      -0.37500000      -0.12500000       0.37500000 </v>
   <v>      -0.37500000       0.37500000      -0.12500000 </v>
   <v>      -0.50000000       0.25000000       0.25000000 </v>
   <v>      -0.50000000      -0.25000000       0.25000000 </v>
   <v>      -0.50000000       0.25000000      -0.25000000 </v>
   <v>      -0.50000000      -0.25000000      -0.25000000 </v>
   <v>       0.25000000       0.25000000      -0.50000000 </v>
   <v>       0.25000000      -0.25000000      -0.50000000 </v>
   <v>       0.25000000      -0.50000000       0.25000000 </v>
   <v>       0.25000000      -0.50000000      -0.25000000 </v>
   <v>      -0.25000000       0.25000000      -0.50000000 </v>
   <v>      -0.25000000      -0.25000000      -0.50000000 </v>
   <v>      -0.25000000      -0.50000000       0.25000000 </v>
   <v>      -0.25000000      -0.50000000      -0.25000000 </v>
   <v>       0.37500000      -0.37500000      -0.37500000 </v>
   <v>       0.37500000       0.37500000      -0.37500000 </v>
   <v>       0.37500000      -0.37500000       0.37500000 </v>
   <v>       0.37500000       0.37500000       0.37500000 </v>
   <v>      -0.37500000      -0.37500000      -0.37500000 </v>
   <v>      -0.37500000       0.37500000      -0.37500000 </v>
   <v>      -0.37500000      -0.37500000       0.37500000 </v>
   <v>      -0.37500000       0.37500000       0.37500000 </v>
   <v>      -0.50000000      -0.50000000       0.00000000 </v>
   <v>      -0.50000000       0.00000000      -0.50000000 </v>
   <v>       0.00000000      -0.50000000      -0.50000000 </v>
   <v>      -0.50000000      -0.50000000      -0.50000000 </v>
  </varray>
 </structure>
 <varray name="primitive_index" >
  <v type="int" >        1 </v>
  <v type="int" >       33 </v>
  <v type="int" >       51 </v>
  <v type="int" >       69 </v>
  <v type="int" >       87 </v>
  <v type="int" >       42 </v>
  <v type="int" >       60 </v>
  <v type="int" >       78 </v>
  <v type="int" >       96 </v>
  <v type="int" >        9 </v>
  <v type="int" >       11 </v>
  <v type="int" >       17 </v>
  <v type="int" >       21 </v>
  <v type="int" >       25 </v>
  <v type="int" >       27 </v>
  <v type="int" >       29 </v>
  <v type="int" >       31 </v>
  <v type="int" >       10 </v>
  <v type="int" >       12 </v>
  <v type="int" >       18 </v>
  <v type="int" >       22 </v>
  <v type="int" >       41 </v>
  <v type="int" >       59 </v>
  <v type="int" >       77 </v>
  <v type="int" >       95 </v>
  <v type="int" >       35 </v>
  <v type="int" >       49 </v>
  <v type="int" >       71 </v>
  <v type="int" >       85 </v>
  <v type="int" >       37 </v>
  <v type="int" >       55 </v>
  <v type="int" >       65 </v>
  <v type="int" >       83 </v>
  <v type="int" >       44 </v>
  <v type="int" >       46 </v>
  <v type="int" >       58 </v>
  <v type="int" >       64 </v>
  <v type="int" >       74 </v>
  <v type="int" >       80 </v>
  <v type="int" >       92 </v>
  <v type="int" >       94 </v>
  <v type="int" >       34 </v>
  <v type="int" >       52 </v>
  <v type="int" >       70 </v>
  <v type="int" >       88 </v>
  <v type="int" >        2 </v>
  <v type="int" >        3 </v>
  <v type="int" >        5 </v>
  <v type="int" >       43 </v>
  <v type="int" >       45 </v>
  <v type="int" >       57 </v>
  <v type="int" >       63 </v>
  <v type="int" >       73 </v>
  <v type="int" >       79 </v>
  <v type="int" >       91 </v>
  <v type="int" >       93 </v>
  <v type="int" >       39 </v>
  <v type="int" >       53 </v>
  <v type="int" >       67 </v>
  <v type="int" >       81 </v>
  <v type="int" >       48 </v>
  <v type="int" >       62 </v>
  <v type="int" >       76 </v>
  <v type="int" >       90 </v>
  <v type="int" >       36 </v>
  <v type="int" >       38 </v>
  <v type="int" >       50 </v>
  <v type="int" >       56 </v>
  <v type="int" >       66 </v>
  <v type="int" >       72 </v>
  <v type="int" >       84 </v>
  <v type="int" >       86 </v>
  <v type="int" >       26 </v>
  <v type="int" >       28 </v>
  <v type="int" >       30 </v>
  <v type="int" >       32 </v>
  <v type="int" >       13 </v>
  <v type="int" >       15 </v>
  <v type="int" >       19 </v>
  <v type="int" >       23 </v>
  <v type="int" >       14 </v>
  <v type="int" >       16 </v>
  <v type="int" >       20 </v>
  <v type="int" >       24 </v>
  <v type="int" >       47 </v>
  <v type="int" >       61 </v>
  <v type="int" >       75 </v>
  <v type="int" >       89 </v>
  <v type="int" >       40 </v>
  <v type="int" >       54 </v>
  <v type="int" >       68 </v>
  <v type="int" >       82 </v>
  <v type="int" >        4 </v>
  <v type="int" >        6 </v>
  <v type="int" >        7 </v>
  <v type="int" >        8 </v>
 </varray>
 <kpoints>
  <generation param="Gamma">
   <v type="int" name="divisions">       1        1        1 </v>
   <v name="usershift">      0.00000000       0.00000000       0.00000000 </v>
   <v name="genvec1">      1.00000000       0.00000000       0.00000000 </v>
   <v name="genvec2">      0.00000000       1.00000000       0.00000000 </v>
   <v name="genvec3">      0.00000000       0.00000000       1.00000000 </v>
   <v name="shift">      0.00000000       0.00000000       0.00000000 </v>
  </generation>
  <varray name="kpointlist" >
   <v>       0.00000000       0.00000000       0.00000000 </v>
  </varray>
  <varray name="weights" >
   <v>       1.00000000 </v>
  </varray>
 </kpoints>
 <parameters>
  <separator name="general" >
   <i type="string" name="SYSTEM">unknown system</i>
   <i type="logical" name="LCOMPAT"> F  </i>
  </separator>
  <separator name="electronic" >
   <i type="string" name="PREC">accura</i>
   <i name="ENMAX">    270.00000000</i>
   <i name="ENAUG">    454.73400000</i>
   <i name="EDIFF">      0.00000001</i>
   <i type="int" name="IALGO">    38</i>
   <i type="int" name="IWAVPR">    10</i>
   <i type="int" name="NBANDS">   177</i>
   <i name="NELECT">    256.00000000</i>
   <i type="int" name="TURBO">     0</i>
   <i type="int" name="IRESTART">     0</i>
   <i type="int" name="NREBOOT">     0</i>
   <i type="int" name="NMIN">     0</i>
   <i name="EREF">      0.00000000</i>
   <separator name="electronic smearing" >
    <i type="int" name="ISMEAR">     0</i>
    <i name="SIGMA">      0.01000000</i>
    <i name="KSPACING">      0.50000000</i>
    <i type="logical" name="KGAMMA"> T  </i>
   </separator>
   <separator name="electronic projectors" >
    <i type="logical" name="LREAL"> F  </i>
    <v name="ROPT">      0.00000000      0.00000000</v>
    <i type="int" name="LMAXPAW">  -100</i>
    <i type="int" name="LMAXMIX">     2</i>
    <i type="logical" name="NLSPLINE"> F  </i>
   </separator>
   <separator name="electronic startup" >
    <i type="int" name="ISTART">     0</i>
    <i type="int" name="ICHARG">     2</i>
    <i type="int" name="INIWAV">     1</i>
   </separator>
   <separator name="electronic spin" >
    <i type="int" name="ISPIN">     1</i>
    <i type="logical" name="LNONCOLLINEAR"> F  </i>
    <v name="MAGMOM">      1.00000000      1.00000000      1.00000000      1.00000000      1.00000000      1.00000000      1.00000000      1.00000000      1.00000000      1.00000000      1.00000000      1.00000000      1.00000000      1.00000000      1.00000000      1.00000000      1.00000000      1.00000000      1.00000000      1.00000000
      1.00000000      1.00000000      1.00000000      1.00000000      1.00000000      1.00000000      1.00000000      1.00000000      1.00000000      1.00000000      1.00000000      1.00000000      1.00000000      1.00000000      1.00000000      1.00000000      1.00000000      1.00000000      1.00000000      1.00000000
      1.00000000      1.00000000      1.00000000      1.00000000      1.00000000      1.00000000      1.00000000      1.00000000      1.00000000      1.00000000      1.00000000      1.00000000      1.00000000      1.00000000      1.00000000      1.00000000      1.00000000      1.00000000      1.00000000      1.00000000
      1.00000000      1.00000000      1.00000000      1.00000000      1.00000000      1.00000000      1.00000000      1.00000000      1.00000000      1.00000000      1.00000000      1.00000000      1.00000000      1.00000000      1.00000000      1.00000000      1.00000000      1.00000000      1.00000000      1.00000000
      1.00000000      1.00000000      1.00000000      1.00000000      1.00000000      1.00000000      1.00000000      1.00000000      1.00000000      1.00000000      1.00000000      1.00000000      1.00000000      1.00000000      1.00000000      1.00000000</v>
    <i name="NUPDOWN">     -1.00000000</i>
    <i type="logical" name="LSORBIT"> F  </i>
    <v name="SAXIS">      0.00000000      0.00000000      1.00000000</v>
    <i type="logical" name="LSPIRAL"> F  </i>
    <v name="QSPIRAL">      0.00000000      0.00000000      0.00000000</v>
    <i type="logical" name="LZEROZ"> F  </i>
   </separator>
   <separator name="electronic exchange-correlation" >
    <i type="logical" name="LASPH"> F  </i>
    <i type="logical" name="LMETAGGA"> F  </i>
   </separator>
   <separator name="electronic convergence" >
    <i type="int" name="NELM">    60</i>
    <i type="int" name="NELMDL">    -5</i>
    <i type="int" name="NELMIN">     2</i>
    <i name="ENINI">    270.00000000</i>
    <separator name="electronic convergence detail" >
     <i type="logical" name="LDIAG"> T  </i>
     <i type="logical" name="LSUBROT"> F  </i>
     <i name="WEIMIN">      0.00000000</i>
     <i name="EBREAK">      0.00000000</i>
     <i name="DEPER">      0.30000000</i>
     <i type="int" name="NRMM">     4</i>
     <i name="TIME">      0.40000000</i>
    </separator>
   </separator>
   <separator name="electronic mixer" >
    <i name="AMIX">      0.40000000</i>
    <i name="BMIX">      1.00000000</i>
    <i name="AMIN">      0.10000000</i>
    <i name="AMIX_MAG">      1.60000000</i>
    <i name="BMIX_MAG">      1.00000000</i>
    <separator name="electronic mixer details" >
     <i type="int" name="IMIX">     4</i>
     <i type="logical" name="MIXFIRST"> F  </i>
     <i type="int" name="MAXMIX">   -45</i>
     <i name="WC">    100.00000000</i>
     <i type="int" name="INIMIX">     1</i>
     <i type="int" name="MIXPRE">     1</i>
     <i type="int" name="MREMOVE">     5</i>
    </separator>
   </separator>
   <separator name="electronic dipolcorrection" >
    <i type="logical" name="LDIPOL"> F  </i>
    <i type="logical" name="LMONO"> F  </i>
    <i type="int" name="IDIPOL">     0</i>
    <i name="EPSILON">      1.00000000</i>
    <v name="DIPOL">   -100.00000000   -100.00000000   -100.00000000</v>
    <i name="EFIELD">      0.00000000</i>
   </separator>
  </separator>
  <separator name="grids" >
   <i type="int" name="NGX">    70</i>
   <i type="int" name="NGY">    70</i>
   <i type="int" name="NGZ">    70</i>
   <i type="int" name="NGXF">   140</i>
   <i type="int" name="NGYF">   140</i>
   <i type="int" name="NGZF">   140</i>
   <i type="logical" name="ADDGRID"> F  </i>
  </separator>
  <separator name="ionic" >
   <i type="int" name="NSW">     0</i>
   <i type="int" name="IBRION">    -1</i>
   <i type="int" name="MDALGO">     0</i>
   <i type="int" name="ISIF">     2</i>
   <i name="PSTRESS">      0.00000000</i>
   <i name="EDIFFG">      0.00000010</i>
   <i type="int" name="NFREE">     0</i>
   <i name="POTIM">      0.50000000</i>
   <i name="SMASS">     -3.00000000</i>
   <i name="SCALEE">      1.00000000</i>
  </separator>
  <separator name="ionic md" >
   <i name="TEBEG">      0.00010000</i>
   <i name="TEEND">      0.00010000</i>
   <i type="int" name="NBLOCK">     1</i>
   <i type="int" name="KBLOCK">     1</i>
   <i type="int" name="NPACO">   256</i>
   <i name="APACO">     16.00000000</i>
  </separator>
  <separator name="symmetry" >
   <i type="int" name="ISYM">     2</i>
   <i name="SYMPREC">      0.00001000</i>
  </separator>
  <separator name="dos" >
   <i type="int" name="LORBIT">     0</i>
   <v name="RWIGS">     -1.00000000     -1.00000000</v>
   <i type="int" name="NEDOS">   301</i>
   <i name="EMIN">     10.00000000</i>
   <i name="EMAX">    -10.00000000</i>
   <i name="EFERMI">      0.00000000</i>
  </separator>
  <separator name="writing" >
   <i type="int" name="NWRITE">     2</i>
   <i type="logical" name="LWAVE"> F  </i>
   <i type="logical" name="LDOWNSAMPLE"> F  </i>
   <i type="logical" name="LCHARG"> F  </i>
   <i type="logical" name="LPARD"> F  </i>
   <i type="logical" name="LVTOT"> F  </i>
   <i type="logical" name="LVHAR"> F  </i>
   <i type="logical" name="LELF"> F  </i>
   <i type="logical" name="LOPTICS"> F  </i>
   <v name="STM">      0.00000000      0.00000000      0.00000000      0.00000000      0.00000000      0.00000000      0.00000000</v>
  </separator>
  <separator name="performance" >
   <i type="int" name="NPAR">     1</i>
   <i type="int" name="NSIM">     4</i>
   <i type="int" name="NBLK">    -1</i>
   <i type="logical" name="LPLANE"> T  </i>
   <i type="logical" name="LSCALAPACK"> T  </i>
   <i type="logical" name="LSCAAWARE"> F  </i>
   <i type="logical" name="LSCALU"> F  </i>
   <i type="logical" name="LASYNC"> F  </i>
   <i type="logical" name="LORBITALREAL"> F  </i>
  </separator>
  <separator name="miscellaneous" >
   <i type="int" name="IDIOT">     3</i>
   <i type="int" name="ISPECIAL">     0</i>
   <i type="logical" name="LMUSIC"> F  </i>
   <v name="POMASS">     28.08500000     24.30500000</v>
   <v name="DARWINR">      0.00000000      0.00000000</v>
   <v name="DARWINV">      1.00000000      1.00000000</v>
   <i type="logical" name="LCORR"> T  </i>
  </separator>
  <i type="logical" name="GGA_COMPAT"> T  </i>
  <i type="logical" name="LBERRY"> F  </i>
  <i type="int" name="ICORELEVEL">     0</i>
  <i type="logical" name="LDAU"> F  </i>
  <i type="int" name="I_CONSTRAINED_M">     0</i>
  <separator name="electronic exchange-correlation" >
   <i type="string" name="GGA">--</i>
   <i type="int" name="VOSKOWN">     0</i>
   <i type="logical" name="LHFCALC"> F  </i>
   <i type="string" name="PRECFOCK"></i>
   <i type="logical" name="LSYMGRAD"> F  </i>
   <i type="logical" name="LHFONE"> F  </i>
   <i type="logical" name="LRHFCALC"> F  </i>
   <i type="logical" name="LTHOMAS"> F  </i>
   <i type="logical" name="LMODELHF"> F  </i>
   <i name="ENCUT4O">     -1.00000000</i>
   <i type="int" name="EXXOEP">     0</i>
   <i type="int" name="FOURORBIT">     0</i>
   <i name="AEXX">      0.00000000</i>
   <i name="HFALPHA">      0.00000000</i>
   <i name="MCALPHA">      0.00000000</i>
   <i name="ALDAX">      1.00000000</i>
   <i name="AGGAX">      1.00000000</i>
   <i name="ALDAC">      1.00000000</i>
   <i name="AGGAC">      1.00000000</i>
   <i type="int" name="NKREDX">     1</i>
   <i type="int" name="NKREDY">     1</i>
   <i type="int" name="NKREDZ">     1</i>
   <i type="logical" name="SHIFTRED"> F  </i>
   <i type="logical" name="ODDONLY"> F  </i>
   <i type="logical" name="EVENONLY"> F  </i>
   <i type="int" name="LMAXFOCK">     0</i>
   <i type="int" name="NMAXFOCKAE">     0</i>
   <i type="logical" name="LFOCKAEDFT"> F  </i>
   <i name="HFSCREEN">      0.00000000</i>
   <i name="HFSCREENC">      0.00000000</i>
   <i type="int" name="NBANDSGWLOW">     0</i>
  </separator>
  <separator name="vdW DFT" >
   <i type="logical" name="LUSE_VDW"> F  </i>
   <i name="Zab_VDW">     -0.84910000</i>
   <i name="PARAM1">      0.12340000</i>
   <i name="PARAM2">      1.00000000</i>
   <i name="PARAM3">      0.00000000</i>
  </separator>
  <separator name="model GW" >
   <i type="int" name="MODEL_GW">     0</i>
   <i name="MODEL_EPS0">     12.83657461</i>
   <i name="MODEL_ALPHA">      1.00000000</i>
  </separator>
  <separator name="linear response parameters" >
   <i type="logical" name="LEPSILON"> F  </i>
   <i type="logical" name="LRPA"> F  </i>
   <i type="logical" name="LNABLA"> F  </i>
   <i type="logical" name="LVEL"> F  </i>
   <i type="int" name="KINTER">     0</i>
   <i name="CSHIFT">      0.10000000</i>
   <i name="OMEGAMAX">     -1.00000000</i>
   <i name="DEG_THRESHOLD">      0.00200000</i>
   <i name="RTIME">     -0.10000000</i>
   <i name="WPLASMAI">      0.00000000</i>
   <v name="DFIELD">      0.00000000      0.00000000      0.00000000</v>
   <v name="WPLASMA">      0.00000000      0.00000000      0.00000000      0.00000000      0.00000000      0.00000000      0.00000000      0.00000000      0.00000000</v>
  </separator>
  <separator name="orbital magnetization" >
   <i type="logical" name="NUCIND"> F  </i>
   <v name="MAGPOS">      0.00000000      0.00000000      0.00000000</v>
   <i type="logical" name="LNICSALL"> T  </i>
   <i type="logical" name="ORBITALMAG"> F  </i>
   <i type="logical" name="LMAGBLOCH"> F  </i>
   <i type="logical" name="LCHIMAG"> F  </i>
   <i type="logical" name="LGAUGE"> T  </i>
   <i type="int" name="MAGATOM">     0</i>
   <v name="MAGDIPOL">      0.00000000      0.00000000      0.00000000</v>
   <v name="AVECCONST">      0.00000000      0.00000000      0.00000000</v>
  </separator>
  <separator name="response functions" >
   <i type="logical" name="LADDER"> F  </i>
   <i type="logical" name="LRPAFORCE"> F  </i>
   <i type="logical" name="LFXC"> F  </i>
   <i type="logical" name="LHARTREE"> T  </i>
   <i type="int" name="IBSE">     0</i>
   <v type="int" name="KPOINT">    -1     0     0     0</v>
   <i type="logical" name="LTCTE"> F  </i>
   <i type="logical" name="LTETE"> F  </i>
   <i type="logical" name="LTRIPLET"> F  </i>
   <i type="logical" name="LFXCEPS"> F  </i>
   <i type="logical" name="LFXHEG"> F  </i>
   <i type="int" name="NATURALO">     2</i>
   <i type="logical" name="L2ORDER"> F  </i>
   <i type="logical" name="LMP2LT"> F  </i>
   <i type="logical" name="LUSEW"> F  </i>
   <i name="ENCUTGW">     -2.00000000</i>
   <i name="ENCUTGWSOFT">     -2.00000000</i>
   <i name="ENCUTLF">     -1.00000000</i>
   <i type="int" name="LMAXMP2">    -1</i>
   <i name="SCISSOR">      0.00000000</i>
   <i type="int" name="NOMEGA">     0</i>
   <i type="int" name="NOMEGAR">     0</i>
   <i type="int" name="NBANDSGW">    -1</i>
   <i type="int" name="NBANDSO">    -1</i>
   <i type="int" name="NBANDSV">    -1</i>
   <i type="int" name="NELM">     1</i>
   <i type="int" name="NELMHF">     1</i>
   <i type="int" name="DIM">     3</i>
   <i type="int" name="ANTIRES">     0</i>
   <i name="OMEGAMAX">    -30.00000000</i>
   <i name="OMEGAMIN">    -30.00000000</i>
   <i name="OMEGATL">   -200.00000000</i>
   <i type="int" name="OMEGAGRID">   140</i>
   <i name="CSHIFT">     -0.10000000</i>
   <i type="logical" name="SELFENERGY"> F  </i>
   <i type="logical" name="LSPECTRAL"> F  </i>
   <i type="logical" name="LSPECTRALGW"> F  </i>
   <i type="logical" name="LSINGLES"> F  </i>
   <i type="logical" name="LFERMIGW"> F  </i>
   <i type="logical" name="ODDONLYGW"> F  </i>
   <i type="logical" name="EVENONLYGW"> F  </i>
   <i type="int" name="NKREDLFX">     1</i>
   <i type="int" name="NKREDLFY">     1</i>
   <i type="int" name="NKREDLFZ">     1</i>
   <i type="int" name="MAXMEM">  2800</i>
   <i type="int" name="TELESCOPE">     0</i>
   <i type="int" name="TAUPAR">     1</i>
   <i type="int" name="OMEGAPAR">    -1</i>
   <i name="LAMBDA">      1.00000000</i>
  </separator>
  <separator name="External order field" >
   <i name="OFIELD_KAPPA">      0.00000000</i>
   <v name="OFIELD_K">      0.00000000      0.00000000      0.00000000</v>
   <i name="OFIELD_Q6_NEAR">      0.00000000</i>
   <i name="OFIELD_Q6_FAR">      0.00000000</i>
   <i name="OFIELD_A">      0.00000000</i>
  </separator>
 </parameters>
 <atominfo>
  <atoms>      96 </atoms>
  <types>       2 </types>
  <array name="atoms" >
   <dimension dim="1">ion</dimension>
   <field type="string">element</field>
   <field type="int">atomtype</field>
   <set>
    <rc><c>Si</c><c>   1</c></rc>
    <rc><c>Si</c><c>   1</c></rc>
    <rc><c>Si</c><c>   1</c></rc>
    <rc><c>Si</c><c>   1</c></rc>
    <rc><c>Si</c><c>   1</c></rc>
    <rc><c>Si</c><c>   1</c></rc>
    <rc><c>Si</c><c>   1</c></rc>
    <rc><c>Si</c><c>   1</c></rc>
    <rc><c>Si</c><c>   1</c></rc>
    <rc><c>Si</c><c>   1</c></rc>
    <rc><c>Si</c><c>   1</c></rc>
    <rc><c>Si</c><c>   1</c></rc>
    <rc><c>Si</c><c>   1</c></rc>
    <rc><c>Si</c><c>   1</c></rc>
    <rc><c>Si</c><c>   1</c></rc>
    <rc><c>Si</c><c>   1</c></rc>
    <rc><c>Si</c><c>   1</c></rc>
    <rc><c>Si</c><c>   1</c></rc>
    <rc><c>Si</c><c>   1</c></rc>
    <rc><c>Si</c><c>   1</c></rc>
    <rc><c>Si</c><c>   1</c></rc>
    <rc><c>Si</c><c>   1</c></rc>
    <rc><c>Si</c><c>   1</c></rc>
    <rc><c>Si</c><c>   1</c></rc>
    <rc><c>Si</c><c>   1</c></rc>
    <rc><c>Si</c><c>   1</c></rc>
    <rc><c>Si</c><c>   1</c></rc>
    <rc><c>Si</c><c>   1</c></rc>
    <rc><c>Si</c><c>   1</c></rc>
    <rc><c>Si</c><c>   1</c></rc>
    <rc><c>Si</c><c>   1</c></rc>
    <rc><c>Si</c><c>   1</c></rc>
    <rc><c>Mg</c><c>   2</c></rc>
    <rc><c>Mg</c><c>   2</c></rc>
    <rc><c>Mg</c><c>   2</c></rc>
    <rc><c>Mg</c><c>   2</c></rc>
    <rc><c>Mg</c><c>   2</c></rc>
    <rc><c>Mg</c><c>   2</c></rc>
    <rc><c>Mg</c><c>   2</c></rc>
    <rc><c>Mg</c><c>   2</c></rc>
    <rc><c>Mg</c><c>   2</c></rc>
    <rc><c>Mg</c><c>   2</c></rc>
    <rc><c>Mg</c><c>   2</c></rc>
    <rc><c>Mg</c><c>   2</c></rc>
    <rc><c>Mg</c><c>   2</c></rc>
    <rc><c>Mg</c><c>   2</c></rc>
    <rc><c>Mg</c><c>   2</c></rc>
    <rc><c>Mg</c><c>   2</c></rc>
    <rc><c>Mg</c><c>   2</c></rc>
    <rc><c>Mg</c><c>   2</c></rc>
    <rc><c>Mg</c><c>   2</c></rc>
    <rc><c>Mg</c><c>   2</c></rc>
    <rc><c>Mg</c><c>   2</c></rc>
    <rc><c>Mg</c><c>   2</c></rc>
    <rc><c>Mg</c><c>   2</c></rc>
    <rc><c>Mg</c><c>   2</c></rc>
    <rc><c>Mg</c><c>   2</c></rc>
    <rc><c>Mg</c><c>   2</c></rc>
    <rc><c>Mg</c><c>   2</c></rc>
    <rc><c>Mg</c><c>   2</c></rc>
    <rc><c>Mg</c><c>   2</c></rc>
    <rc><c>Mg</c><c>   2</c></rc>
    <rc><c>Mg</c><c>   2</c></rc>
    <rc><c>Mg</c><c>   2</c></rc>
    <rc><c>Mg</c><c>   2</c></rc>
    <rc><c>Mg</c><c>   2</c></rc>
    <rc><c>Mg</c><c>   2</c></rc>
    <rc><c>Mg</c><c>   2</c></rc>
    <rc><c>Mg</c><c>   2</c></rc>
    <rc><c>Mg</c><c>   2</c></rc>
    <rc><c>Mg</c><c>   2</c></rc>
    <rc><c>Mg</c><c>   2</c></rc>
    <rc><c>Mg</c><c>   2</c></rc>
    <rc><c>Mg</c><c>   2</c></rc>
    <rc><c>Mg</c><c>   2</c></rc>
    <rc><c>Mg</c><c>   2</c></rc>
    <rc><c>Mg</c><c>   2</c></rc>
    <rc><c>Mg</c><c>   2</c></rc>
    <rc><c>Mg</c><c>   2</c></rc>
    <rc><c>Mg</c><c>   2</c></rc>
    <rc><c>Mg</c><c>   2</c></rc>
    <rc><c>Mg</c><c>   2</c></rc>
    <rc><c>Mg</c><c>   2</c></rc>
    <rc><c>Mg</c><c>   2</c></rc>
    <rc><c>Mg</c><c>   2</c></rc>
    <rc><c>Mg</c><c>   2</c></rc>
    <rc><c>Mg</c><c>   2</c></rc>
    <rc><c>Mg</c><c>   2</c></rc>
    <rc><c>Mg</c><c>   2</c></rc>
    <rc><c>Mg</c><c>   2</c></rc>
    <rc><c>Mg</c><c>   2</c></rc>
    <rc><c>Mg</c><c>   2</c></rc>
    <rc><c>Mg</c><c>   2</c></rc>
    <rc><c>Mg</c><c>   2</c></rc>
    <rc><c>Mg</c><c>   2</c></rc>
    <rc><c>Mg</c><c>   2</c></rc>
   </set>
  </array>
  <array name="atomtypes" >
   <dimension dim="1">type</dimension>
   <field type="int">atomspertype</field>
   <field type="string">element</field>
   <field>mass</field>
   <field>valence</field>
   <field type="string">pseudopotential</field>
   <set>
    <rc><c>  32</c><c>Si</c><c>     28.08500000</c><c>      4.00000000</c><c>  PAW_PBE Si 05Jan2001                  </c></rc>
    <rc><c>  64</c><c>Mg</c><c>     24.30500000</c><c>      2.00000000</c><c>  PAW_PBE Mg 13Apr2007                  </c></rc>
   </set>
  </array>
 </atominfo>
 <structure name="initialpos" >
  <crystal>
   <varray name="basis" >
    <v>      12.71129245       0.00000000       0.00000000 </v>
    <v>       0.00000000      12.71129245       0.00000000 </v>
    <v>       0.00000000       0.00000000      12.71129245 </v>
   </varray>
   <i name="volume">   2053.85193682 </i>
   <varray name="rec_basis" >
    <v>       0.07867021       0.00000000       0.00000000 </v>
    <v>       0.00000000       0.07867021       0.00000000 </v>
    <v>       0.00000000       0.00000000       0.07867021 </v>
   </varray>
  </crystal>
  <varray name="positions" >
   <v>       0.00078670       0.00000000       0.00000000 </v>
   <v>       0.50000000       0.00000000       0.00000000 </v>
   <v>       0.00000000       0.50000000       0.00000000 </v>
   <v>       0.50000000       0.50000000       0.00000000 </v>
   <v>       0.00000000       0.00000000       0.50000000 </v>
   <v>       0.50000000       0.00000000       0.50000000 </v>
   <v>       0.00000000       0.50000000       0.50000000 </v>
   <v>       0.50000000       0.50000000       0.50000000 </v>
   <v>       0.25000000       0.25000000       0.00000000 </v>
   <v>       0.75000000       0.25000000       0.00000000 </v>
   <v>       0.25000000       0.75000000       0.00000000 </v>
   <v>       0.75000000       0.75000000       0.00000000 </v>
   <v>       0.25000000       0.25000000       0.50000000 </v>
   <v>       0.75000000       0.25000000       0.50000000 </v>
   <v>       0.25000000       0.75000000       0.50000000 </v>
   <v>       0.75000000       0.75000000       0.50000000 </v>
   <v>       0.25000000       0.00000000       0.25000000 </v>
   <v>       0.75000000       0.00000000       0.25000000 </v>
   <v>       0.25000000       0.50000000       0.25000000 </v>
   <v>       0.75000000       0.50000000       0.25000000 </v>
   <v>       0.25000000       0.00000000       0.75000000 </v>
   <v>       0.75000000       0.00000000       0.75000000 </v>
   <v>       0.25000000       0.50000000       0.75000000 </v>
   <v>       0.75000000       0.50000000       0.75000000 </v>
   <v>       0.00000000       0.25000000       0.25000000 </v>
   <v>       0.50000000       0.25000000       0.25000000 </v>
   <v>       0.00000000       0.75000000       0.25000000 </v>
   <v>       0.50000000       0.75000000       0.25000000 </v>
   <v>       0.00000000       0.25000000       0.75000000 </v>
   <v>       0.50000000       0.25000000       0.75000000 </v>
   <v>       0.00000000       0.75000000       0.75000000 </v>
   <v>       0.50000000       0.75000000       0.75000000 </v>
   <v>       0.12500000       0.12500000       0.12500000 </v>
   <v>       0.62500000       0.12500000       0.12500000 </v>
   <v>       0.12500000       0.62500000       0.12500000 </v>
   <v>       0.62500000       0.62500000       0.12500000 </v>
   <v>       0.12500000       0.12500000       0.62500000 </v>
   <v>       0.62500000       0.12500000       0.62500000 </v>
   <v>       0.12500000       0.62500000       0.62500000 </v>
   <v>       0.62500000       0.62500000       0.62500000 </v>
   <v>       0.37500000       0.12500000       0.12500000 </v>
   <v>       0.87500000       0.12500000       0.12500000 </v>
   <v>       0.37500000       0.62500000       0.12500000 </v>
   <v>       0.87500000       0.62500000       0.12500000 </v>
   <v>       0.37500000       0.12500000       0.62500000 </v>
   <v>       0.87500000       0.12500000       0.62500000 </v>
   <v>       0.37500000       0.62500000       0.62500000 </v>
   <v>       0.87500000       0.62500000       0.62500000 </v>
   <v>       0.12500000       0.37500000       0.12500000 </v>
   <v>       0.62500000       0.37500000       0.12500000 </v>
   <v>       0.12500000       0.87500000       0.12500000 </v>
   <v>       0.62500000       0.87500000       0.12500000 </v>
   <v>       0.12500000       0.37500000       0.62500000 </v>
   <v>       0.62500000       0.37500000       0.62500000 </v>
   <v>       0.12500000       0.87500000       0.62500000 </v>
   <v>       0.62500000       0.87500000       0.62500000 </v>
   <v>       0.37500000       0.37500000       0.12500000 </v>
   <v>       0.87500000       0.37500000       0.12500000 </v>
   <v>       0.37500000       0.87500000       0.12500000 </v>
   <v>       0.87500000       0.87500000       0.12500000 </v>
   <v>       0.37500000       0.37500000       0.62500000 </v>
   <v>       0.87500000       0.37500000       0.62500000 </v>
   <v>       0.37500000       0.87500000       0.62500000 </v>
   <v>       0.87500000       0.87500000       0.62500000 </v>
   <v>       0.12500000       0.12500000       0.37500000 </v>
   <v>       0.62500000       0.12500000       0.37500000 </v>
   <v>       0.12500000       0.62500000       0.37500000 </v>
   <v>       0.62500000       0.62500000       0.37500000 </v>
   <v>       0.12500000       0.12500000       0.87500000 </v>
   <v>       0.62500000       0.12500000       0.87500000 </v>
   <v>       0.12500000       0.62500000       0.87500000 </v>
   <v>       0.62500000       0.62500000       0.87500000 </v>
   <v>       0.37500000       0.12500000       0.37500000 </v>
   <v>       0.87500000       0.12500000       0.37500000 </v>
   <v>       0.37500000       0.62500000       0.37500000 </v>
   <v>       0.87500000       0.62500000       0.37500000 </v>
   <v>       0.37500000       0.12500000       0.87500000 </v>
   <v>       0.87500000       0.12500000       0.87500000 </v>
   <v>       0.37500000       0.62500000       0.87500000 </v>
   <v>       0.87500000       0.62500000       0.87500000 </v>
   <v>       0.12500000       0.37500000       0.37500000 </v>
   <v>       0.62500000       0.37500000       0.37500000 </v>
   <v>       0.12500000       0.87500000       0.37500000 </v>
   <v>       0.62500000       0.87500000       0.37500000 </v>
   <v>       0.12500000       0.37500000       0.87500000 </v>
   <v>       0.62500000       0.37500000       0.87500000 </v>
   <v>       0.12500000       0.87500000       0.87500000 </v>
   <v>       0.62500000       0.87500000       0.87500000 </v>
   <v>       0.37500000       0.37500000       0.37500000 </v>
   <v>       0.87500000       0.37500000       0.37500000 </v>
   <v>       0.37500000       0.87500000       0.37500000 </v>
   <v>       0.87500000       0.87500000       0.37500000 </v>
   <v>       0.37500000       0.37500000       0.87500000 </v>
   <v>       0.87500000       0.37500000       0.87500000 </v>
   <v>       0.37500000       0.87500000       0.87500000 </v>
   <v>       0.87500000       0.87500000       0.87500000 </v>
  </varray>
 </structure>
 <calculation>
  <scstep>
   <time name="dav">   25.97   26.03</time>
   <time name="total">   27.37   27.43</time>
   <energy>
    <i name="alphaZ">    213.07712613 </i>
    <i name="ewald">  -5235.19827608 </i>
    <i name="hartreedc">   -333.86771510 </i>
    <i name="XCdc">  -3430.69745334 </i>
    <i name="pawpsdc">   6999.59008484 </i>
    <i name="pawaedc">  -3117.38992839 </i>
    <i name="eentropy">     -0.00000083 </i>
    <i name="bandstr">    443.61971243 </i>
    <i name="atom">   4772.36960577 </i>
    <i name="e_fr_energy">    311.50315544 </i>
    <i name="e_wo_entrp">    311.50315626 </i>
    <i name="e_0_energy">    311.50315585 </i>
   </energy>
  </scstep>
  <scstep>
   <time name="dav">   29.55   29.61</time>
   <time name="total">   29.55   29.61</time>
   <energy>
    <i name="e_fr_energy">   -254.53147147 </i>
    <i name="e_wo_entrp">   -254.53147147 </i>
    <i name="e_0_energy">   -254.53147147 </i>
   </energy>
  </scstep>
  <scstep>
   <time name="dav">   30.51   30.57</time>
   <time name="total">   30.51   30.57</time>
   <energy>
    <i name="e_fr_energy">   -298.42477626 </i>
    <i name="e_wo_entrp">   -298.42477626 </i>
    <i name="e_0_energy">   -298.42477626 </i>
   </energy>
  </scstep>
  <scstep>
   <time name="dav">   29.17   29.23</time>
   <time name="total">   29.17   29.23</time>
   <energy>
    <i name="e_fr_energy">   -299.37010133 </i>
    <i name="e_wo_entrp">   -299.37010133 </i>
    <i name="e_0_energy">   -299.37010133 </i>
   </energy>
  </scstep>
  <scstep>
   <time name="dav">   30.51   30.57</time>
   <time name="total">   31.33   31.39</time>
   <energy>
    <i name="e_fr_energy">   -299.39690748 </i>
    <i name="e_wo_entrp">   -299.39690748 </i>
    <i name="e_0_energy">   -299.39690748 </i>
   </energy>
  </scstep>
  <scstep>
   <time name="dav">   26.46   26.51</time>
   <time name="total">   28.66   28.71</time>
   <energy>
    <i name="e_fr_energy">   -282.07894913 </i>
    <i name="e_wo_entrp">   -282.07894913 </i>
    <i name="e_0_energy">   -282.07894913 </i>
   </energy>
  </scstep>
  <scstep>
   <time name="dav">   28.18   28.23</time>
   <time name="total">   30.39   30.45</time>
   <energy>
    <i name="e_fr_energy">   -279.57742272 </i>
    <i name="e_wo_entrp">   -279.57742272 </i>
    <i name="e_0_energy">   -279.57742272 </i>
   </energy>
  </scstep>
  <scstep>
   <time name="dav">   26.84   26.89</time>
   <time name="total">   29.05   29.10</time>
   <energy>
    <i name="e_fr_energy">   -279.58841245 </i>
    <i name="e_wo_entrp">   -279.58841245 </i>
    <i name="e_0_energy">   -279.58841245 </i>
   </energy>
  </scstep>
  <scstep>
   <time name="dav">   29.64   29.70</time>
   <time name="total">   31.84   31.91</time>
   <energy>
    <i name="e_fr_energy">   -279.58688423 </i>
    <i name="e_wo_entrp">   -279.58688423 </i>
    <i name="e_0_energy">   -279.58688423 </i>
   </energy>
  </scstep>
  <scstep>
   <time name="dav">   27.29   27.34</time>
   <time name="total">   29.50   29.55</time>
   <energy>
    <i name="e_fr_energy">   -279.58734020 </i>
    <i name="e_wo_entrp">   -279.58734020 </i>
    <i name="e_0_energy">   -279.58734020 </i>
   </energy>
  </scstep>
  <scstep>
   <time name="dav">   26.41   26.46</time>
   <time name="total">   28.59   28.65</time>
   <energy>
    <i name="e_fr_energy">   -279.58902427 </i>
    <i name="e_wo_entrp">   -279.58902427 </i>
    <i name="e_0_energy">   -279.58902427 </i>
   </energy>
  </scstep>
  <scstep>
   <time name="dav">   28.32   28.38</time>
   <time name="total">   30.51   30.57</time>
   <energy>
    <i name="e_fr_energy">   -279.58879482 </i>
    <i name="e_wo_entrp">   -279.58879482 </i>
    <i name="e_0_energy">   -279.58879482 </i>
   </energy>
  </scstep>
  <scstep>
   <time name="dav">   28.77   28.83</time>
   <time name="total">   30.96   31.02</time>
   <energy>
    <i name="e_fr_energy">   -279.58853964 </i>
    <i name="e_wo_entrp">   -279.58853964 </i>
    <i name="e_0_energy">   -279.58853964 </i>
   </energy>
  </scstep>
  <scstep>
   <time name="dav">   28.77   28.82</time>
   <time name="total">   30.95   31.01</time>
   <energy>
    <i name="e_fr_energy">   -279.58852270 </i>
    <i name="e_wo_entrp">   -279.58852270 </i>
    <i name="e_0_energy">   -279.58852270 </i>
   </energy>
  </scstep>
  <scstep>
   <time name="dav">   28.77   28.83</time>
   <time name="total">   30.96   31.02</time>
   <energy>
    <i name="e_fr_energy">   -279.58852491 </i>
    <i name="e_wo_entrp">   -279.58852491 </i>
    <i name="e_0_energy">   -279.58852491 </i>
   </energy>
  </scstep>
  <scstep>
   <time name="dav">   28.23   28.28</time>
   <time name="total">   30.45   30.50</time>
   <energy>
    <i name="e_fr_energy">   -279.58852371 </i>
    <i name="e_wo_entrp">   -279.58852371 </i>
    <i name="e_0_energy">   -279.58852371 </i>
   </energy>
  </scstep>
  <scstep>
   <time name="dav">   28.68   28.73</time>
   <time name="total">   30.90   30.95</time>
   <energy>
    <i name="e_fr_energy">   -279.58852456 </i>
    <i name="e_wo_entrp">   -279.58852456 </i>
    <i name="e_0_energy">   -279.58852456 </i>
   </energy>
  </scstep>
  <scstep>
   <time name="dav">   28.67   28.72</time>
   <time name="total">   30.89   30.95</time>
   <energy>
    <i name="e_fr_energy">   -279.58852439 </i>
    <i name="e_wo_entrp">   -279.58852439 </i>
    <i name="e_0_energy">   -279.58852439 </i>
   </energy>
  </scstep>
  <scstep>
   <time name="dav">   28.67   28.73</time>
   <time name="total">   30.89   30.95</time>
   <energy>
    <i name="e_fr_energy">   -279.58852507 </i>
    <i name="e_wo_entrp">   -279.58852507 </i>
    <i name="e_0_energy">   -279.58852507 </i>
   </energy>
  </scstep>
  <scstep>
   <time name="dav">   28.67   28.72</time>
   <time name="total">   30.90   30.95</time>
   <energy>
    <i name="e_fr_energy">   -279.58852541 </i>
    <i name="e_wo_entrp">   -279.58852541 </i>
    <i name="e_0_energy">   -279.58852541 </i>
   </energy>
  </scstep>
  <scstep>
   <time name="dav">   18.97   19.01</time>
   <time name="total">   20.36   20.40</time>
   <energy>
    <i name="alphaZ">    213.07712613 </i>
    <i name="ewald">  -5235.19827608 </i>
    <i name="hartreedc">   -488.82493260 </i>
    <i name="XCdc">  -3402.55372310 </i>
    <i name="pawpsdc">  17884.95772577 </i>
    <i name="pawaedc"> -14007.23109687 </i>
    <i name="eentropy">     -0.00000000 </i>
    <i name="bandstr">    -16.18495442 </i>
    <i name="atom">   4772.36960577 </i>
    <i name="e_fr_energy">   -279.58852540 </i>
    <i name="e_wo_entrp">   -279.58852540 </i>
    <i name="e_0_energy">   -279.58852540 </i>
   </energy>
  </scstep>
  <structure>
   <crystal>
    <varray name="basis" >
     <v>      12.71129245       0.00000000       0.00000000 </v>
     <v>       0.00000000      12.71129245       0.00000000 </v>
     <v>       0.00000000       0.00000000      12.71129245 </v>
    </varray>
    <i name="volume">   2053.85193682 </i>
    <varray name="rec_basis" >
     <v>       0.07867021       0.00000000       0.00000000 </v>
     <v>       0.00000000       0.07867021       0.00000000 </v>
     <v>       0.00000000       0.00000000       0.07867021 </v>
    </varray>
   </crystal>
   <varray name="positions" >
    <v>       0.00078670       0.00000000       0.00000000 </v>
    <v>       0.50000000       0.00000000       0.00000000 </v>
    <v>       0.00000000       0.50000000       0.00000000 </v>
    <v>       0.50000000       0.50000000       0.00000000 </v>
    <v>       0.00000000       0.00000000       0.50000000 </v>
    <v>       0.50000000       0.00000000       0.50000000 </v>
    <v>       0.00000000       0.50000000       0.50000000 </v>
    <v>       0.50000000       0.50000000       0.50000000 </v>
    <v>       0.25000000       0.25000000       0.00000000 </v>
    <v>       0.75000000       0.25000000       0.00000000 </v>
    <v>       0.25000000       0.75000000       0.00000000 </v>
    <v>       0.75000000       0.75000000       0.00000000 </v>
    <v>       0.25000000       0.25000000       0.50000000 </v>
    <v>       0.75000000       0.25000000       0.50000000 </v>
    <v>       0.25000000       0.75000000       0.50000000 </v>
    <v>       0.75000000       0.75000000       0.50000000 </v>
    <v>       0.25000000       0.00000000       0.25000000 </v>
    <v>       0.75000000       0.00000000       0.25000000 </v>
    <v>       0.25000000       0.50000000       0.25000000 </v>
    <v>       0.75000000       0.50000000       0.25000000 </v>
    <v>       0.25000000       0.00000000       0.75000000 </v>
    <v>       0.75000000       0.00000000       0.75000000 </v>
    <v>       0.25000000       0.50000000       0.75000000 </v>
    <v>       0.75000000       0.50000000       0.75000000 </v>
    <v>       0.00000000       0.25000000       0.25000000 </v>
    <v>       0.50000000       0.25000000       0.25000000 </v>
    <v>       0.00000000       0.75000000       0.25000000 </v>
    <v>       0.50000000       0.75000000       0.25000000 </v>
    <v>       0.00000000       0.25000000       0.75000000 </v>
    <v>       0.50000000       0.25000000       0.75000000 </v>
    <v>       0.00000000       0.75000000       0.75000000 </v>
    <v>       0.50000000       0.75000000       0.75000000 </v>
    <v>       0.12500000       0.12500000       0.12500000 </v>
    <v>       0.62500000       0.12500000       0.12500000 </v>
    <v>       0.12500000       0.62500000       0.12500000 </v>
    <v>       0.62500000       0.62500000       0.12500000 </v>
    <v>       0.12500000       0.12500000       0.62500000 </v>
    <v>       0.62500000       0.12500000       0.62500000 </v>
    <v>       0.12500000       0.62500000       0.62500000 </v>
    <v>       0.62500000       0.62500000       0.62500000 </v>
    <v>       0.37500000       0.12500000       0.12500000 </v>
    <v>       0.87500000       0.12500000       0.12500000 </v>
    <v>       0.37500000       0.62500000       0.12500000 </v>
    <v>       0.87500000       0.62500000       0.12500000 </v>
    <v>       0.37500000       0.12500000       0.62500000 </v>
    <v>       0.87500000       0.12500000       0.62500000 </v>
    <v>       0.37500000       0.62500000       0.62500000 </v>
    <v>       0.87500000       0.62500000       0.62500000 </v>
    <v>       0.12500000       0.37500000       0.12500000 </v>
    <v>       0.62500000       0.37500000       0.12500000 </v>
    <v>       0.12500000       0.87500000       0.12500000 </v>
    <v>       0.62500000       0.87500000       0.12500000 </v>
    <v>       0.12500000       0.37500000       0.62500000 </v>
    <v>       0.62500000       0.37500000       0.62500000 </v>
    <v>       0.12500000       0.87500000       0.62500000 </v>
    <v>       0.62500000       0.87500000       0.62500000 </v>
    <v>       0.37500000       0.37500000       0.12500000 </v>
    <v>       0.87500000       0.37500000       0.12500000 </v>
    <v>       0.37500000       0.87500000       0.12500000 </v>
    <v>       0.87500000       0.87500000       0.12500000 </v>
    <v>       0.37500000       0.37500000       0.62500000 </v>
    <v>       0.87500000       0.37500000       0.62500000 </v>
    <v>       0.37500000       0.87500000       0.62500000 </v>
    <v>       0.87500000       0.87500000       0.62500000 </v>
    <v>       0.12500000       0.12500000       0.37500000 </v>
    <v>       0.62500000       0.12500000       0.37500000 </v>
    <v>       0.12500000       0.62500000       0.37500000 </v>
    <v>       0.62500000       0.62500000       0.37500000 </v>
    <v>       0.12500000       0.12500000       0.87500000 </v>
    <v>       0.62500000       0.12500000       0.87500000 </v>
    <v>       0.12500000       0.62500000       0.87500000 </v>
    <v>       0.62500000       0.62500000       0.87500000 </v>
    <v>       0.37500000       0.12500000       0.37500000 </v>
    <v>       0.87500000       0.12500000       0.37500000 </v>
    <v>       0.37500000       0.62500000       0.37500000 </v>
    <v>       0.87500000       0.62500000       0.37500000 </v>
    <v>       0.37500000       0.12500000       0.87500000 </v>
    <v>       0.87500000       0.12500000       0.87500000 </v>
    <v>       0.37500000       0.62500000       0.87500000 </v>
    <v>       0.87500000       0.62500000       0.87500000 </v>
    <v>       0.12500000       0.37500000       0.37500000 </v>
    <v>       0.62500000       0.37500000       0.37500000 </v>
    <v>       0.12500000       0.87500000       0.37500000 </v>
    <v>       0.62500000       0.87500000       0.37500000 </v>
    <v>       0.12500000       0.37500000       0.87500000 </v>
    <v>       0.62500000       0.37500000       0.87500000 </v>
    <v>       0.12500000       0.87500000       0.87500000 </v>
    <v>       0.62500000       0.87500000       0.87500000 </v>
    <v>       0.37500000       0.37500000       0.37500000 </v>
    <v>       0.87500000       0.37500000       0.37500000 </v>
    <v>       0.37500000       0.87500000       0.37500000 </v>
    <v>       0.87500000       0.87500000       0.37500000 </v>
    <v>       0.37500000       0.37500000       0.87500000 </v>
    <v>       0.87500000       0.37500000       0.87500000 </v>
    <v>       0.37500000       0.87500000       0.87500000 </v>
    <v>       0.87500000       0.87500000       0.87500000 </v>
   </varray>
  </structure>
  <varray name="forces" >
   <v>      -0.05799903       0.00000000      -0.00000000 </v>
   <v>       0.00289156       0.00000000      -0.00000000 </v>
   <v>       0.00125616       0.00000000      -0.00000000 </v>
   <v>       0.00642232       0.00000000      -0.00000000 </v>
   <v>       0.00125616       0.00000000      -0.00000000 </v>
   <v>       0.00642232       0.00000000      -0.00000000 </v>
   <v>       0.00294254       0.00000000      -0.00000000 </v>
   <v>       0.00287356       0.00000000      -0.00000000 </v>
   <v>       0.00080921       0.00345462      -0.00000000 </v>
   <v>       0.00081474      -0.00344522      -0.00000000 </v>
   <v>       0.00080921      -0.00345462      -0.00000000 </v>
   <v>       0.00081474       0.00344522      -0.00000000 </v>
   <v>      -0.00139028       0.00041007      -0.00000000 </v>
   <v>      -0.00139506      -0.00040626      -0.00000000 </v>
   <v>      -0.00139028      -0.00041007      -0.00000000 </v>
   <v>      -0.00139506       0.00040626      -0.00000000 </v>
   <v>       0.00080921       0.00000000       0.00345462 </v>
   <v>       0.00081474       0.00000000      -0.00344522 </v>
   <v>      -0.00139028       0.00000000       0.00041007 </v>
   <v>      -0.00139506       0.00000000      -0.00040626 </v>
   <v>       0.00080921       0.00000000      -0.00345462 </v>
   <v>       0.00081474       0.00000000       0.00344522 </v>
   <v>      -0.00139028       0.00000000      -0.00041007 </v>
   <v>      -0.00139506       0.00000000       0.00040626 </v>
   <v>      -0.00218973      -0.00000640      -0.00000640 </v>
   <v>      -0.00005368      -0.00000127      -0.00000127 </v>
   <v>      -0.00218973       0.00000640      -0.00000640 </v>
   <v>      -0.00005368       0.00000127      -0.00000127 </v>
   <v>      -0.00218973      -0.00000640       0.00000640 </v>
   <v>      -0.00005368      -0.00000127       0.00000127 </v>
   <v>      -0.00218973       0.00000640       0.00000640 </v>
   <v>      -0.00005368       0.00000127       0.00000127 </v>
   <v>       0.00662745       0.00388748       0.00388748 </v>
   <v>      -0.00069443      -0.00007972      -0.00007972 </v>
   <v>       0.00061558       0.00023374      -0.00045743 </v>
   <v>      -0.00060655      -0.00040445       0.00062417 </v>
   <v>       0.00061558      -0.00045743       0.00023374 </v>
   <v>      -0.00060655       0.00062417      -0.00040445 </v>
   <v>       0.00028271      -0.00017420      -0.00017420 </v>
   <v>      -0.00021389      -0.00001164      -0.00001164 </v>
   <v>      -0.00069675       0.00007048       0.00007048 </v>
   <v>       0.00651247      -0.00372590      -0.00372590 </v>
   <v>      -0.00060943       0.00039725      -0.00062515 </v>
   <v>       0.00061137      -0.00024244       0.00044653 </v>
   <v>      -0.00060943      -0.00062515       0.00039725 </v>
   <v>       0.00061137       0.00044653      -0.00024244 </v>
   <v>      -0.00021843       0.00000683       0.00000683 </v>
   <v>       0.00026735       0.00016761       0.00016761 </v>
   <v>       0.00061558      -0.00023374      -0.00045743 </v>
   <v>      -0.00060655       0.00040445       0.00062417 </v>
   <v>       0.00662745      -0.00388748       0.00388748 </v>
   <v>      -0.00069443       0.00007972      -0.00007972 </v>
   <v>       0.00028271       0.00017420      -0.00017420 </v>
   <v>      -0.00021389       0.00001164      -0.00001164 </v>
   <v>       0.00061558       0.00045743       0.00023374 </v>
   <v>      -0.00060655      -0.00062417      -0.00040445 </v>
   <v>      -0.00060943      -0.00039725      -0.00062515 </v>
   <v>       0.00061137       0.00024244       0.00044653 </v>
   <v>      -0.00069675      -0.00007048       0.00007048 </v>
   <v>       0.00651247       0.00372590      -0.00372590 </v>
   <v>      -0.00021843      -0.00000683       0.00000683 </v>
   <v>       0.00026735      -0.00016761       0.00016761 </v>
   <v>      -0.00060943       0.00062515       0.00039725 </v>
   <v>       0.00061137      -0.00044653      -0.00024244 </v>
   <v>       0.00061558      -0.00045743      -0.00023374 </v>
   <v>      -0.00060655       0.00062417       0.00040445 </v>
   <v>       0.00028271      -0.00017420       0.00017420 </v>
   <v>      -0.00021389      -0.00001164       0.00001164 </v>
   <v>       0.00662745       0.00388748      -0.00388748 </v>
   <v>      -0.00069443      -0.00007972       0.00007972 </v>
   <v>       0.00061558       0.00023374       0.00045743 </v>
   <v>      -0.00060655      -0.00040445      -0.00062417 </v>
   <v>      -0.00060943      -0.00062515      -0.00039725 </v>
   <v>       0.00061137       0.00044653       0.00024244 </v>
   <v>      -0.00021843       0.00000683      -0.00000683 </v>
   <v>       0.00026735       0.00016761      -0.00016761 </v>
   <v>      -0.00069675       0.00007048      -0.00007048 </v>
   <v>       0.00651247      -0.00372590       0.00372590 </v>
   <v>      -0.00060943       0.00039725       0.00062515 </v>
   <v>       0.00061137      -0.00024244      -0.00044653 </v>
   <v>       0.00028271       0.00017420       0.00017420 </v>
   <v>      -0.00021389       0.00001164       0.00001164 </v>
   <v>       0.00061558       0.00045743      -0.00023374 </v>
   <v>      -0.00060655      -0.00062417       0.00040445 </v>
   <v>       0.00061558      -0.00023374       0.00045743 </v>
   <v>      -0.00060655       0.00040445      -0.00062417 </v>
   <v>       0.00662745      -0.00388748      -0.00388748 </v>
   <v>      -0.00069443       0.00007972       0.00007972 </v>
   <v>      -0.00021843      -0.00000683      -0.00000683 </v>
   <v>       0.00026735      -0.00016761      -0.00016761 </v>
   <v>      -0.00060943       0.00062515      -0.00039725 </v>
   <v>       0.00061137      -0.00044653       0.00024244 </v>
   <v>      -0.00060943      -0.00039725       0.00062515 </v>
   <v>       0.00061137       0.00024244      -0.00044653 </v>
   <v>      -0.00069675      -0.00007048      -0.00007048 </v>
   <v>       0.00651247       0.00372590       0.00372590 </v>
  </varray>
  <varray name="stress" >
   <v>      -0.09004794      -0.00000000       0.00000000 </v>
   <v>       0.00000000      -0.08925683       0.00000000 </v>
   <v>       0.00000000      -0.00000000      -0.08925683 </v>
  </varray>
  <energy>
   <i name="e_fr_energy">   -279.58852540 </i>
   <i name="e_wo_entrp">   -279.58852540 </i>
   <i name="e_0_energy">     -0.00000000 </i>
  </energy>
  <time name="totalsc">  689.94  691.23</time>
  <eigenvalues>
   <array>
    <dimension dim="1">band</dimension>
    <dimension dim="2">kpoint</dimension>
    <dimension dim="3">spin</dimension>
    <field>eigene</field>
    <field>occ</field>
    <set>
     <set comment="spin 1">
      <set comment="kpoint 1">
       <r>   -5.4768    1.0000 </r>
       <r>   -4.7508    1.0000 </r>
       <r>   -4.7504    1.0000 </r>
       <r>   -4.7504    1.0000 </r>
       <r>   -4.7504    1.0000 </r>
       <r>   -4.7504    1.0000 </r>
       <r>   -4.7500    1.0000 </r>
       <r>   -4.1721    1.0000 </r>
       <r>   -4.1713    1.0000 </r>
       <r>   -4.1713    1.0000 </r>
       <r>   -4.1708    1.0000 </r>
       <r>   -4.1707    1.0000 </r>
       <r>   -4.1707    1.0000 </r>
       <r>   -4.1707    1.0000 </r>
       <r>   -4.1707    1.0000 </r>
       <r>   -4.1707    1.0000 </r>
       <r>   -4.1702    1.0000 </r>
       <r>   -4.1702    1.0000 </r>
       <r>   -4.1694    1.0000 </r>
       <r>   -4.0413    1.0000 </r>
       <r>   -4.0413    1.0000 </r>
       <r>   -4.0413    1.0000 </r>
       <r>   -4.0413    1.0000 </r>
       <r>   -3.4785    1.0000 </r>
       <r>   -3.4784    1.0000 </r>
       <r>   -3.4784    1.0000 </r>
       <r>   -3.4296    1.0000 </r>
       <r>   -3.4292    1.0000 </r>
       <r>   -3.4292    1.0000 </r>
       <r>   -3.4292    1.0000 </r>
       <r>   -3.4292    1.0000 </r>
       <r>   -3.4287    1.0000 </r>
       <r>   -1.1469    1.0000 </r>
       <r>   -1.1469    1.0000 </r>
       <r>   -1.1469    1.0000 </r>
       <r>   -1.1469    1.0000 </r>
       <r>   -0.8199    1.0000 </r>
       <r>   -0.8199    1.0000 </r>
       <r>   -0.8199    1.0000 </r>
       <r>    0.0137    1.0000 </r>
       <r>    0.0137    1.0000 </r>
       <r>    0.0140    1.0000 </r>
       <r>    0.0141    1.0000 </r>
       <r>    0.0141    1.0000 </r>
       <r>    0.0142    1.0000 </r>
       <r>    0.0142    1.0000 </r>
       <r>    0.0142    1.0000 </r>
       <r>    0.0143    1.0000 </r>
       <r>    0.0143    1.0000 </r>
       <r>    0.0146    1.0000 </r>
       <r>    0.0146    1.0000 </r>
       <r>    0.0354    1.0000 </r>
       <r>    0.0370    1.0000 </r>
       <r>    0.0371    1.0000 </r>
       <r>    0.0371    1.0000 </r>
       <r>    0.0372    1.0000 </r>
       <r>    0.0372    1.0000 </r>
       <r>    0.0372    1.0000 </r>
       <r>    0.0372    1.0000 </r>
       <r>    0.0373    1.0000 </r>
       <r>    0.0373    1.0000 </r>
       <r>    0.0373    1.0000 </r>
       <r>    0.0391    1.0000 </r>
       <r>    0.8158    1.0000 </r>
       <r>    0.8158    1.0000 </r>
       <r>    0.8165    1.0000 </r>
       <r>    0.8166    1.0000 </r>
       <r>    0.8167    1.0000 </r>
       <r>    0.8167    1.0000 </r>
       <r>    0.8167    1.0000 </r>
       <r>    0.8167    1.0000 </r>
       <r>    0.8167    1.0000 </r>
       <r>    0.8169    1.0000 </r>
       <r>    0.8176    1.0000 </r>
       <r>    0.8176    1.0000 </r>
       <r>    0.9568    1.0000 </r>
       <r>    0.9573    1.0000 </r>
       <r>    0.9573    1.0000 </r>
       <r>    0.9573    1.0000 </r>
       <r>    0.9573    1.0000 </r>
       <r>    0.9579    1.0000 </r>
       <r>    1.2089    1.0000 </r>
       <r>    1.2099    1.0000 </r>
       <r>    1.2099    1.0000 </r>
       <r>    1.2099    1.0000 </r>
       <r>    1.2099    1.0000 </r>
       <r>    1.2108    1.0000 </r>
       <r>    1.6774    1.0000 </r>
       <r>    1.6774    1.0000 </r>
       <r>    1.6774    1.0000 </r>
       <r>    1.6774    1.0000 </r>
       <r>    1.6774    1.0000 </r>
       <r>    1.6774    1.0000 </r>
       <r>    2.3697    1.0000 </r>
       <r>    2.3697    1.0000 </r>
       <r>    2.3706    1.0000 </r>
       <r>    2.3706    1.0000 </r>
       <r>    2.3707    1.0000 </r>
       <r>    2.3707    1.0000 </r>
       <r>    2.3707    1.0000 </r>
       <r>    2.3707    1.0000 </r>
       <r>    2.3708    1.0000 </r>
       <r>    2.3708    1.0000 </r>
       <r>    2.3716    1.0000 </r>
       <r>    2.3716    1.0000 </r>
       <r>    2.8227    1.0000 </r>
       <r>    2.8233    1.0000 </r>
       <r>    2.8236    1.0000 </r>
       <r>    2.8236    1.0000 </r>
       <r>    2.8237    1.0000 </r>
       <r>    2.8237    1.0000 </r>
       <r>    2.8237    1.0000 </r>
       <r>    2.8237    1.0000 </r>
       <r>    2.8237    1.0000 </r>
       <r>    2.8237    1.0000 </r>
       <r>    2.8241    1.0000 </r>
       <r>    2.8247    1.0000 </r>
       <r>    2.9290    1.0000 </r>
       <r>    2.9290    1.0000 </r>
       <r>    2.9290    1.0000 </r>
       <r>    2.9290    1.0000 </r>
       <r>    2.9290    1.0000 </r>
       <r>    2.9290    1.0000 </r>
       <r>    2.9290    1.0000 </r>
       <r>    2.9290    1.0000 </r>
       <r>    3.6367    1.0000 </r>
       <r>    3.6367    1.0000 </r>
       <r>    3.6367    1.0000 </r>
       <r>    3.8040    0.0000 </r>
       <r>    3.8040    0.0000 </r>
       <r>    3.8040    0.0000 </r>
       <r>    3.9996    0.0000 </r>
       <r>    3.9996    0.0000 </r>
       <r>    3.9996    0.0000 </r>
       <r>    4.8082    0.0000 </r>
       <r>    4.8083    0.0000 </r>
       <r>    4.8083    0.0000 </r>
       <r>    4.8083    0.0000 </r>
       <r>    4.8083    0.0000 </r>
       <r>    4.8085    0.0000 </r>
       <r>    4.8611    0.0000 </r>
       <r>    4.8611    0.0000 </r>
       <r>    4.8611    0.0000 </r>
       <r>    4.8611    0.0000 </r>
       <r>    5.3849    0.0000 </r>
       <r>    5.3851    0.0000 </r>
       <r>    5.3851    0.0000 </r>
       <r>    5.3851    0.0000 </r>
       <r>    5.3851    0.0000 </r>
       <r>    5.3853    0.0000 </r>
       <r>    5.4009    0.0000 </r>
       <r>    5.4009    0.0000 </r>
       <r>    5.4012    0.0000 </r>
       <r>    5.4013    0.0000 </r>
       <r>    5.4013    0.0000 </r>
       <r>    5.4013    0.0000 </r>
       <r>    5.4013    0.0000 </r>
       <r>    5.4013    0.0000 </r>
       <r>    5.4013    0.0000 </r>
       <r>    5.4014    0.0000 </r>
       <r>    5.4016    0.0000 </r>
       <r>    5.4016    0.0000 </r>
       <r>    5.4901    0.0000 </r>
       <r>    6.1503    0.0000 </r>
       <r>    6.1503    0.0000 </r>
       <r>    6.1503    0.0000 </r>
       <r>    6.1503    0.0000 </r>
       <r>    6.1503    0.0000 </r>
       <r>    6.1503    0.0000 </r>
       <r>    6.1503    0.0000 </r>
       <r>    6.1503    0.0000 </r>
       <r>    6.1639    0.0000 </r>
       <r>    6.1639    0.0000 </r>
       <r>    6.1639    0.0000 </r>
       <r>    6.2843    0.0000 </r>
       <r>    6.2844    0.0000 </r>
       <r>    6.2853    0.0000 </r>
      </set>
     </set>
    </set>
   </array>
  </eigenvalues>
  <separator name="orbital magnetization" >
   <v name="MAGDIPOLOUT">      0.00000000      0.00000000      0.00000000</v>
  </separator>
  <dos>
   <i name="efermi">      3.69276001 </i>
   <total>
    <array>
     <dimension dim="1">gridpoints</dimension>
     <dimension dim="2">spin</dimension>
     <field>energy</field>
     <field>total</field>
     <field>integrated</field>
     <set>
      <set comment="spin 1">
       <r>    -6.0649     0.0000     0.0000 </r>
       <r>    -6.0218     0.0000     0.0000 </r>
       <r>    -5.9787     0.0000     0.0000 </r>
       <r>    -5.9355     0.0000     0.0000 </r>
       <r>    -5.8924     0.0000     0.0000 </r>
       <r>    -5.8493     0.0000     0.0000 </r>
       <r>    -5.8062     0.0000     0.0000 </r>
       <r>    -5.7630     0.0000     0.0000 </r>
       <r>    -5.7199     0.0000     0.0000 </r>
       <r>    -5.6768     0.0000     0.0000 </r>
       <r>    -5.6336     0.0000     0.0000 </r>
       <r>    -5.5905     0.0000     0.0000 </r>
       <r>    -5.5474     0.0000     0.0000 </r>
       <r>    -5.5043     0.0024     0.0001 </r>
       <r>    -5.4611    45.7554     1.9734 </r>
       <r>    -5.4180     0.6159     2.0000 </r>
       <r>    -5.3749     0.0000     2.0000 </r>
       <r>    -5.3317     0.0000     2.0000 </r>
       <r>    -5.2886     0.0000     2.0000 </r>
       <r>    -5.2455     0.0000     2.0000 </r>
       <r>    -5.2024     0.0000     2.0000 </r>
       <r>    -5.1592     0.0000     2.0000 </r>
       <r>    -5.1161     0.0000     2.0000 </r>
       <r>    -5.0730     0.0000     2.0000 </r>
       <r>    -5.0299     0.0000     2.0000 </r>
       <r>    -4.9867     0.0000     2.0000 </r>
       <r>    -4.9436     0.0000     2.0000 </r>
       <r>    -4.9005     0.0000     2.0000 </r>
       <r>    -4.8573     0.0000     2.0000 </r>
       <r>    -4.8142     0.0000     2.0000 </r>
       <r>    -4.7711     0.4817     2.0208 </r>
       <r>    -4.7280   277.5510    13.9910 </r>
       <r>    -4.6848     0.2097    14.0000 </r>
       <r>    -4.6417     0.0000    14.0000 </r>
       <r>    -4.5986     0.0000    14.0000 </r>
       <r>    -4.5554     0.0000    14.0000 </r>
       <r>    -4.5123     0.0000    14.0000 </r>
       <r>    -4.4692     0.0000    14.0000 </r>
       <r>    -4.4261     0.0000    14.0000 </r>
       <r>    -4.3829     0.0000    14.0000 </r>
       <r>    -4.3398     0.0000    14.0000 </r>
       <r>    -4.2967     0.0000    14.0000 </r>
       <r>    -4.2535     0.0000    14.0000 </r>
       <r>    -4.2104     0.0000    14.0000 </r>
       <r>    -4.1673   382.1936    30.4832 </r>
       <r>    -4.1242   174.2912    38.0000 </r>
       <r>    -4.0810     0.0000    38.0000 </r>
       <r>    -4.0379   126.7948    43.4684 </r>
       <r>    -3.9948    58.7001    46.0000 </r>
       <r>    -3.9517     0.0000    46.0000 </r>
       <r>    -3.9085     0.0000    46.0000 </r>
       <r>    -3.8654     0.0000    46.0000 </r>
       <r>    -3.8223     0.0000    46.0000 </r>
       <r>    -3.7791     0.0000    46.0000 </r>
       <r>    -3.7360     0.0000    46.0000 </r>
       <r>    -3.6929     0.0000    46.0000 </r>
       <r>    -3.6498     0.0000    46.0000 </r>
       <r>    -3.6066     0.0000    46.0000 </r>
       <r>    -3.5635     0.0000    46.0000 </r>
       <r>    -3.5204     0.0000    46.0000 </r>
       <r>    -3.4772    78.9083    49.4031 </r>
       <r>    -3.4341   127.5608    54.9046 </r>
       <r>    -3.3910   210.8945    64.0000 </r>
       <r>    -3.3479     0.0000    64.0000 </r>
       <r>    -3.3047     0.0000    64.0000 </r>
       <r>    -3.2616     0.0000    64.0000 </r>
       <r>    -3.2185     0.0000    64.0000 </r>
       <r>    -3.1754     0.0000    64.0000 </r>
       <r>    -3.1322     0.0000    64.0000 </r>
       <r>    -3.0891     0.0000    64.0000 </r>
       <r>    -3.0460     0.0000    64.0000 </r>
       <r>    -3.0028     0.0000    64.0000 </r>
       <r>    -2.9597     0.0000    64.0000 </r>
       <r>    -2.9166     0.0000    64.0000 </r>
       <r>    -2.8735     0.0000    64.0000 </r>
       <r>    -2.8303     0.0000    64.0000 </r>
       <r>    -2.7872     0.0000    64.0000 </r>
       <r>    -2.7441     0.0000    64.0000 </r>
       <r>    -2.7009     0.0000    64.0000 </r>
       <r>    -2.6578     0.0000    64.0000 </r>
       <r>    -2.6147     0.0000    64.0000 </r>
       <r>    -2.5716     0.0000    64.0000 </r>
       <r>    -2.5284     0.0000    64.0000 </r>
       <r>    -2.4853     0.0000    64.0000 </r>
       <r>    -2.4422     0.0000    64.0000 </r>
       <r>    -2.3991     0.0000    64.0000 </r>
       <r>    -2.3559     0.0000    64.0000 </r>
       <r>    -2.3128     0.0000    64.0000 </r>
       <r>    -2.2697     0.0000    64.0000 </r>
       <r>    -2.2265     0.0000    64.0000 </r>
       <r>    -2.1834     0.0000    64.0000 </r>
       <r>    -2.1403     0.0000    64.0000 </r>
       <r>    -2.0972     0.0000    64.0000 </r>
       <r>    -2.0540     0.0000    64.0000 </r>
       <r>    -2.0109     0.0000    64.0000 </r>
       <r>    -1.9678     0.0000    64.0000 </r>
       <r>    -1.9246     0.0000    64.0000 </r>
       <r>    -1.8815     0.0000    64.0000 </r>
       <r>    -1.8384     0.0000    64.0000 </r>
       <r>    -1.7953     0.0000    64.0000 </r>
       <r>    -1.7521     0.0000    64.0000 </r>
       <r>    -1.7090     0.0000    64.0000 </r>
       <r>    -1.6659     0.0000    64.0000 </r>
       <r>    -1.6227     0.0000    64.0000 </r>
       <r>    -1.5796     0.0000    64.0000 </r>
       <r>    -1.5365     0.0000    64.0000 </r>
       <r>    -1.4934     0.0000    64.0000 </r>
       <r>    -1.4502     0.0000    64.0000 </r>
       <r>    -1.4071     0.0000    64.0000 </r>
       <r>    -1.3640     0.0000    64.0000 </r>
       <r>    -1.3209     0.0000    64.0000 </r>
       <r>    -1.2777     0.0000    64.0000 </r>
       <r>    -1.2346     0.0000    64.0000 </r>
       <r>    -1.1915     0.0000    64.0000 </r>
       <r>    -1.1483    77.2785    67.3329 </r>
       <r>    -1.1052   108.2164    72.0000 </r>
       <r>    -1.0621     0.0000    72.0000 </r>
       <r>    -1.0190     0.0000    72.0000 </r>
       <r>    -0.9758     0.0000    72.0000 </r>
       <r>    -0.9327     0.0000    72.0000 </r>
       <r>    -0.8896     0.0000    72.0000 </r>
       <r>    -0.8464     0.0121    72.0005 </r>
       <r>    -0.8033   137.7851    77.9429 </r>
       <r>    -0.7602     1.3240    78.0000 </r>
       <r>    -0.7171     0.0000    78.0000 </r>
       <r>    -0.6739     0.0000    78.0000 </r>
       <r>    -0.6308     0.0000    78.0000 </r>
       <r>    -0.5877     0.0000    78.0000 </r>
       <r>    -0.5446     0.0000    78.0000 </r>
       <r>    -0.5014     0.0000    78.0000 </r>
       <r>    -0.4583     0.0000    78.0000 </r>
       <r>    -0.4152     0.0000    78.0000 </r>
       <r>    -0.3720     0.0000    78.0000 </r>
       <r>    -0.3289     0.0000    78.0000 </r>
       <r>    -0.2858     0.0000    78.0000 </r>
       <r>    -0.2427     0.0000    78.0000 </r>
       <r>    -0.1995     0.0000    78.0000 </r>
       <r>    -0.1564     0.0000    78.0000 </r>
       <r>    -0.1133     0.0000    78.0000 </r>
       <r>    -0.0701     0.0000    78.0000 </r>
       <r>    -0.0270     0.0000    78.0000 </r>
       <r>     0.0161   339.1010    92.6247 </r>
       <r>     0.0592   773.3251   125.9766 </r>
       <r>     0.1024     0.5434   126.0000 </r>
       <r>     0.1455     0.0000   126.0000 </r>
       <r>     0.1886     0.0000   126.0000 </r>
       <r>     0.2317     0.0000   126.0000 </r>
       <r>     0.2749     0.0000   126.0000 </r>
       <r>     0.3180     0.0000   126.0000 </r>
       <r>     0.3611     0.0000   126.0000 </r>
       <r>     0.4043     0.0000   126.0000 </r>
       <r>     0.4474     0.0000   126.0000 </r>
       <r>     0.4905     0.0000   126.0000 </r>
       <r>     0.5336     0.0000   126.0000 </r>
       <r>     0.5768     0.0000   126.0000 </r>
       <r>     0.6199     0.0000   126.0000 </r>
       <r>     0.6630     0.0000   126.0000 </r>
       <r>     0.7062     0.0000   126.0000 </r>
       <r>     0.7493     0.0000   126.0000 </r>
       <r>     0.7924     0.1715   126.0074 </r>
       <r>     0.8355   554.1295   149.9058 </r>
       <r>     0.8787     2.1838   150.0000 </r>
       <r>     0.9218     0.0001   150.0000 </r>
       <r>     0.9649   238.7210   160.2955 </r>
       <r>     1.0081    39.5213   162.0000 </r>
       <r>     1.0512     0.0000   162.0000 </r>
       <r>     1.0943     0.0000   162.0000 </r>
       <r>     1.1374     0.0000   162.0000 </r>
       <r>     1.1806     0.0050   162.0002 </r>
       <r>     1.2237   271.1119   173.6927 </r>
       <r>     1.2668     7.1255   174.0000 </r>
       <r>     1.3099     0.0000   174.0000 </r>
       <r>     1.3531     0.0000   174.0000 </r>
       <r>     1.3962     0.0000   174.0000 </r>
       <r>     1.4393     0.0000   174.0000 </r>
       <r>     1.4825     0.0000   174.0000 </r>
       <r>     1.5256     0.0000   174.0000 </r>
       <r>     1.5687     0.0000   174.0000 </r>
       <r>     1.6118     0.0000   174.0000 </r>
       <r>     1.6550     0.2127   174.0092 </r>
       <r>     1.6981   277.5582   185.9797 </r>
       <r>     1.7412     0.4715   186.0000 </r>
       <r>     1.7844     0.0000   186.0000 </r>
       <r>     1.8275     0.0000   186.0000 </r>
       <r>     1.8706     0.0000   186.0000 </r>
       <r>     1.9137     0.0000   186.0000 </r>
       <r>     1.9569     0.0000   186.0000 </r>
       <r>     2.0000     0.0000   186.0000 </r>
       <r>     2.0431     0.0000   186.0000 </r>
       <r>     2.0862     0.0000   186.0000 </r>
       <r>     2.1294     0.0000   186.0000 </r>
       <r>     2.1725     0.0000   186.0000 </r>
       <r>     2.2156     0.0000   186.0000 </r>
       <r>     2.2588     0.0000   186.0000 </r>
       <r>     2.3019     0.0000   186.0000 </r>
       <r>     2.3450     0.0824   186.0036 </r>
       <r>     2.3881   552.5645   209.8345 </r>
       <r>     2.4313     3.8378   210.0000 </r>
       <r>     2.4744     0.0000   210.0000 </r>
       <r>     2.5175     0.0000   210.0000 </r>
       <r>     2.5607     0.0000   210.0000 </r>
       <r>     2.6038     0.0000   210.0000 </r>
       <r>     2.6469     0.0000   210.0000 </r>
       <r>     2.6900     0.0000   210.0000 </r>
       <r>     2.7332     0.0000   210.0000 </r>
       <r>     2.7763     0.0000   210.0000 </r>
       <r>     2.8194   152.3761   216.5717 </r>
       <r>     2.8625   404.1086   234.0000 </r>
       <r>     2.9057     0.1824   234.0079 </r>
       <r>     2.9488   369.8712   249.9596 </r>
       <r>     2.9919     0.9362   250.0000 </r>
       <r>     3.0351     0.0000   250.0000 </r>
       <r>     3.0782     0.0000   250.0000 </r>
       <r>     3.1213     0.0000   250.0000 </r>
       <r>     3.1644     0.0000   250.0000 </r>
       <r>     3.2076     0.0000   250.0000 </r>
       <r>     3.2507     0.0000   250.0000 </r>
       <r>     3.2938     0.0000   250.0000 </r>
       <r>     3.3370     0.0000   250.0000 </r>
       <r>     3.3801     0.0000   250.0000 </r>
       <r>     3.4232     0.0000   250.0000 </r>
       <r>     3.4663     0.0000   250.0000 </r>
       <r>     3.5095     0.0000   250.0000 </r>
       <r>     3.5526     0.0000   250.0000 </r>
       <r>     3.5957     0.0000   250.0000 </r>
       <r>     3.6389    86.5249   253.7316 </r>
       <r>     3.6820    52.5963   256.0000 </r>
       <r>     3.7251     0.0000   256.0000 </r>
       <r>     3.7682     0.0000   256.0000 </r>
       <r>     3.8114   118.3424   261.1039 </r>
       <r>     3.8545    20.7788   262.0000 </r>
       <r>     3.8976     0.0000   262.0000 </r>
       <r>     3.9407     0.0000   262.0000 </r>
       <r>     3.9839     1.8355   262.0792 </r>
       <r>     4.0270   137.2783   267.9997 </r>
       <r>     4.0701     0.0073   268.0000 </r>
       <r>     4.1133     0.0000   268.0000 </r>
       <r>     4.1564     0.0000   268.0000 </r>
       <r>     4.1995     0.0000   268.0000 </r>
       <r>     4.2426     0.0000   268.0000 </r>
       <r>     4.2858     0.0000   268.0000 </r>
       <r>     4.3289     0.0000   268.0000 </r>
       <r>     4.3720     0.0000   268.0000 </r>
       <r>     4.4152     0.0000   268.0000 </r>
       <r>     4.4583     0.0000   268.0000 </r>
       <r>     4.5014     0.0000   268.0000 </r>
       <r>     4.5445     0.0000   268.0000 </r>
       <r>     4.5877     0.0000   268.0000 </r>
       <r>     4.6308     0.0000   268.0000 </r>
       <r>     4.6739     0.0000   268.0000 </r>
       <r>     4.7170     0.0000   268.0000 </r>
       <r>     4.7602     0.0000   268.0000 </r>
       <r>     4.8033    66.2421   270.8569 </r>
       <r>     4.8464   215.5269   280.1521 </r>
       <r>     4.8896   181.9631   287.9998 </r>
       <r>     4.9327     0.0053   288.0000 </r>
       <r>     4.9758     0.0000   288.0000 </r>
       <r>     5.0189     0.0000   288.0000 </r>
       <r>     5.0621     0.0000   288.0000 </r>
       <r>     5.1052     0.0000   288.0000 </r>
       <r>     5.1483     0.0000   288.0000 </r>
       <r>     5.1915     0.0000   288.0000 </r>
       <r>     5.2346     0.0000   288.0000 </r>
       <r>     5.2777     0.0000   288.0000 </r>
       <r>     5.3208     0.0000   288.0000 </r>
       <r>     5.3640     0.3878   288.0167 </r>
       <r>     5.4071   719.3150   319.0392 </r>
       <r>     5.4502   115.0243   324.0000 </r>
       <r>     5.4933    31.4098   325.3546 </r>
       <r>     5.5365    14.9639   326.0000 </r>
       <r>     5.5796     0.0000   326.0000 </r>
       <r>     5.6227     0.0000   326.0000 </r>
       <r>     5.6659     0.0000   326.0000 </r>
       <r>     5.7090     0.0000   326.0000 </r>
       <r>     5.7521     0.0000   326.0000 </r>
       <r>     5.7952     0.0000   326.0000 </r>
       <r>     5.8384     0.0000   326.0000 </r>
       <r>     5.8815     0.0000   326.0000 </r>
       <r>     5.9246     0.0000   326.0000 </r>
       <r>     5.9678     0.0000   326.0000 </r>
       <r>     6.0109     0.0000   326.0000 </r>
       <r>     6.0540     0.0000   326.0000 </r>
       <r>     6.0971     0.0000   326.0000 </r>
       <r>     6.1403    28.9036   327.2465 </r>
       <r>     6.1834   480.8014   347.9825 </r>
       <r>     6.2265     0.4061   348.0000 </r>
       <r>     6.2696     2.3386   348.1009 </r>
       <r>     6.3128   136.7774   353.9998 </r>
       <r>     6.3559     0.0052   354.0000 </r>
       <r>     6.3990     0.0000   354.0000 </r>
       <r>     6.4422     0.0000   354.0000 </r>
       <r>     6.4853     0.0000   354.0000 </r>
       <r>     6.5284     0.0000   354.0000 </r>
       <r>     6.5715     0.0000   354.0000 </r>
       <r>     6.6147     0.0000   354.0000 </r>
       <r>     6.6578     0.0000   354.0000 </r>
       <r>     6.7009     0.0000   354.0000 </r>
       <r>     6.7441     0.0000   354.0000 </r>
       <r>     6.7872     0.0000   354.0000 </r>
       <r>     6.8303     0.0000   354.0000 </r>
       <r>     6.8734     0.0000   354.0000 </r>
      </set>
     </set>
    </array>
   </total>
  </dos>
 </calculation>
 <structure name="finalpos" >
  <crystal>
   <varray name="basis" >
    <v>      12.71129245       0.00000000       0.00000000 </v>
    <v>       0.00000000      12.71129245       0.00000000 </v>
    <v>       0.00000000       0.00000000      12.71129245 </v>
   </varray>
   <i name="volume">   2053.85193682 </i>
   <varray name="rec_basis" >
    <v>       0.07867021       0.00000000       0.00000000 </v>
    <v>       0.00000000       0.07867021       0.00000000 </v>
    <v>       0.00000000       0.00000000       0.07867021 </v>
   </varray>
  </crystal>
  <varray name="positions" >
   <v>       0.00078670       0.00000000       0.00000000 </v>
   <v>       0.50000000       0.00000000       0.00000000 </v>
   <v>       0.00000000       0.50000000       0.00000000 </v>
   <v>       0.50000000       0.50000000       0.00000000 </v>
   <v>       0.00000000       0.00000000       0.50000000 </v>
   <v>       0.50000000       0.00000000       0.50000000 </v>
   <v>       0.00000000       0.50000000       0.50000000 </v>
   <v>       0.50000000       0.50000000       0.50000000 </v>
   <v>       0.25000000       0.25000000       0.00000000 </v>
   <v>       0.75000000       0.25000000       0.00000000 </v>
   <v>       0.25000000       0.75000000       0.00000000 </v>
   <v>       0.75000000       0.75000000       0.00000000 </v>
   <v>       0.25000000       0.25000000       0.50000000 </v>
   <v>       0.75000000       0.25000000       0.50000000 </v>
   <v>       0.25000000       0.75000000       0.50000000 </v>
   <v>       0.75000000       0.75000000       0.50000000 </v>
   <v>       0.25000000       0.00000000       0.25000000 </v>
   <v>       0.75000000       0.00000000       0.25000000 </v>
   <v>       0.25000000       0.50000000       0.25000000 </v>
   <v>       0.75000000       0.50000000       0.25000000 </v>
   <v>       0.25000000       0.00000000       0.75000000 </v>
   <v>       0.75000000       0.00000000       0.75000000 </v>
   <v>       0.25000000       0.50000000       0.75000000 </v>
   <v>       0.75000000       0.50000000       0.75000000 </v>
   <v>       0.00000000       0.25000000       0.25000000 </v>
   <v>       0.50000000       0.25000000       0.25000000 </v>
   <v>       0.00000000       0.75000000       0.25000000 </v>
   <v>       0.50000000       0.75000000       0.25000000 </v>
   <v>       0.00000000       0.25000000       0.75000000 </v>
   <v>       0.50000000       0.25000000       0.75000000 </v>
   <v>       0.00000000       0.75000000       0.75000000 </v>
   <v>       0.50000000       0.75000000       0.75000000 </v>
   <v>       0.12500000       0.12500000       0.12500000 </v>
   <v>       0.62500000       0.12500000       0.12500000 </v>
   <v>       0.12500000       0.62500000       0.12500000 </v>
   <v>       0.62500000       0.62500000       0.12500000 </v>
   <v>       0.12500000       0.12500000       0.62500000 </v>
   <v>       0.62500000       0.12500000       0.62500000 </v>
   <v>       0.12500000       0.62500000       0.62500000 </v>
   <v>       0.62500000       0.62500000       0.62500000 </v>
   <v>       0.37500000       0.12500000       0.12500000 </v>
   <v>       0.87500000       0.12500000       0.12500000 </v>
   <v>       0.37500000       0.62500000       0.12500000 </v>
   <v>       0.87500000       0.62500000       0.12500000 </v>
   <v>       0.37500000       0.12500000       0.62500000 </v>
   <v>       0.87500000       0.12500000       0.62500000 </v>
   <v>       0.37500000       0.62500000       0.62500000 </v>
   <v>       0.87500000       0.62500000       0.62500000 </v>
   <v>       0.12500000       0.37500000       0.12500000 </v>
   <v>       0.62500000       0.37500000       0.12500000 </v>
   <v>       0.12500000       0.87500000       0.12500000 </v>
   <v>       0.62500000       0.87500000       0.12500000 </v>
   <v>       0.12500000       0.37500000       0.62500000 </v>
   <v>       0.62500000       0.37500000       0.62500000 </v>
   <v>       0.12500000       0.87500000       0.62500000 </v>
   <v>       0.62500000       0.87500000       0.62500000 </v>
   <v>       0.37500000       0.37500000       0.12500000 </v>
   <v>       0.87500000       0.37500000       0.12500000 </v>
   <v>       0.37500000       0.87500000       0.12500000 </v>
   <v>       0.87500000       0.87500000       0.12500000 </v>
   <v>       0.37500000       0.37500000       0.62500000 </v>
   <v>       0.87500000       0.37500000       0.62500000 </v>
   <v>       0.37500000       0.87500000       0.62500000 </v>
   <v>       0.87500000       0.87500000       0.62500000 </v>
   <v>       0.12500000       0.12500000       0.37500000 </v>
   <v>       0.62500000       0.12500000       0.37500000 </v>
   <v>       0.12500000       0.62500000       0.37500000 </v>
   <v>       0.62500000       0.62500000       0.37500000 </v>
   <v>       0.12500000       0.12500000       0.87500000 </v>
   <v>       0.62500000       0.12500000       0.87500000 </v>
   <v>       0.12500000       0.62500000       0.87500000 </v>
   <v>       0.62500000       0.62500000       0.87500000 </v>
   <v>       0.37500000       0.12500000       0.37500000 </v>
   <v>       0.87500000       0.12500000       0.37500000 </v>
   <v>       0.37500000       0.62500000       0.37500000 </v>
   <v>       0.87500000       0.62500000       0.37500000 </v>
   <v>       0.37500000       0.12500000       0.87500000 </v>
   <v>       0.87500000       0.12500000       0.87500000 </v>
   <v>       0.37500000       0.62500000       0.87500000 </v>
   <v>       0.87500000       0.62500000       0.87500000 </v>
   <v>       0.12500000       0.37500000       0.37500000 </v>
   <v>       0.62500000       0.37500000       0.37500000 </v>
   <v>       0.12500000       0.87500000       0.37500000 </v>
   <v>       0.62500000       0.87500000       0.37500000 </v>
   <v>       0.12500000       0.37500000       0.87500000 </v>
   <v>       0.62500000       0.37500000       0.87500000 </v>
   <v>       0.12500000       0.87500000       0.87500000 </v>
   <v>       0.62500000       0.87500000       0.87500000 </v>
   <v>       0.37500000       0.37500000       0.37500000 </v>
   <v>       0.87500000       0.37500000       0.37500000 </v>
   <v>       0.37500000       0.87500000       0.37500000 </v>
   <v>       0.87500000       0.87500000       0.37500000 </v>
   <v>       0.37500000       0.37500000       0.87500000 </v>
   <v>       0.87500000       0.37500000       0.87500000 </v>
   <v>       0.37500000       0.87500000       0.87500000 </v>
   <v>       0.87500000       0.87500000       0.87500000 </v>
  </varray>
 </structure>
</modeling>
