<?xml version="1.0" encoding="ISO-8859-1"?>
<modeling>
 <generator>
  <i name="program" type="string">vasp </i>
  <i name="version" type="string">5.4.4.18Apr17-6-g9f103f2a35  </i>
  <i name="subversion" type="string">(build Apr 28 2017 11:12:57) complex            parallel </i>
  <i name="platform" type="string">LinuxIFC </i>
  <i name="date" type="string">2018 06 27 </i>
  <i name="time" type="string">23:34:28 </i>
 </generator>
 <incar>
  <i type="string" name="PREC">accurate</i>
  <i type="int" name="IALGO">    38</i>
  <i type="int" name="IBRION">    -1</i>
  <i name="EDIFF">      0.00000001</i>
  <i type="int" name="ISYM">     0</i>
  <i name="ENCUT">    270.00000000</i>
  <i type="logical" name="LREAL"> F  </i>
  <i type="int" name="ISMEAR">     0</i>
  <i name="SIGMA">      0.01000000</i>
  <i type="logical" name="LWAVE"> F  </i>
  <i type="logical" name="LCHARG"> F  </i>
  <v type="int" name="KPOINT_BSE">    -1     0     0     0</v>
 </incar>
 <structure name="primitive_cell" >
  <crystal>
   <varray name="basis" >
    <v>      12.74739769       0.00000000       0.00000000 </v>
    <v>       0.00000000      12.74739769       0.00000000 </v>
    <v>       0.00000000       0.00000000      12.74739769 </v>
   </varray>
   <i name="volume">   2071.40301882 </i>
   <varray name="rec_basis" >
    <v>       0.07844738       0.00000000       0.00000000 </v>
    <v>       0.00000000       0.07844738       0.00000000 </v>
    <v>       0.00000000       0.00000000       0.07844738 </v>
   </varray>
  </crystal>
  <varray name="positions" >
   <v>       0.00000000       0.00000000       0.00000000 </v>
   <v>       0.12960836       0.12960836       0.12960836 </v>
   <v>      -0.12960836       0.12960836       0.12960836 </v>
   <v>       0.12960836      -0.12960836       0.12960836 </v>
   <v>      -0.12960836      -0.12960836       0.12960836 </v>
   <v>       0.12960836       0.12960836      -0.12960836 </v>
   <v>      -0.12960836       0.12960836      -0.12960836 </v>
   <v>       0.12960836      -0.12960836      -0.12960836 </v>
   <v>      -0.12960836      -0.12960836      -0.12960836 </v>
   <v>       0.25140293       0.25140293       0.00000000 </v>
   <v>      -0.25140293       0.25140293       0.00000000 </v>
   <v>       0.25140293      -0.25140293       0.00000000 </v>
   <v>      -0.25140293      -0.25140293       0.00000000 </v>
   <v>       0.25140293       0.00000000       0.25140293 </v>
   <v>      -0.25140293       0.00000000       0.25140293 </v>
   <v>       0.25140293       0.00000000      -0.25140293 </v>
   <v>      -0.25140293       0.00000000      -0.25140293 </v>
   <v>       0.00000000       0.25140293       0.25140293 </v>
   <v>       0.00000000      -0.25140293       0.25140293 </v>
   <v>       0.00000000       0.25140293      -0.25140293 </v>
   <v>       0.00000000      -0.25140293      -0.25140293 </v>
   <v>      -0.37578643       0.12428756       0.12507203 </v>
   <v>       0.12507203      -0.37578643       0.12507203 </v>
   <v>       0.12507203       0.12507203      -0.37578643 </v>
   <v>       0.37578643       0.12507203       0.12507203 </v>
   <v>      -0.12507203      -0.37578643       0.12507203 </v>
   <v>      -0.12507203       0.12507203      -0.37578643 </v>
   <v>       0.12507203       0.37578643       0.12507203 </v>
   <v>      -0.37578643      -0.12507203       0.12507203 </v>
   <v>       0.12507203      -0.12507203      -0.37578643 </v>
   <v>      -0.12507203       0.37578643       0.12507203 </v>
   <v>       0.37578643      -0.12507203       0.12507203 </v>
   <v>      -0.12507203      -0.12507203      -0.37578643 </v>
   <v>       0.12507203       0.12507203       0.37578643 </v>
   <v>      -0.37578643       0.12507203      -0.12507203 </v>
   <v>       0.12507203      -0.37578643      -0.12507203 </v>
   <v>      -0.12507203       0.12507203       0.37578643 </v>
   <v>       0.37578643       0.12507203      -0.12507203 </v>
   <v>      -0.12507203      -0.37578643      -0.12507203 </v>
   <v>       0.12507203      -0.12507203       0.37578643 </v>
   <v>       0.12507203       0.37578643      -0.12507203 </v>
   <v>      -0.37578643      -0.12507203      -0.12507203 </v>
   <v>      -0.12507203      -0.12507203       0.37578643 </v>
   <v>      -0.12507203       0.37578643      -0.12507203 </v>
   <v>       0.37578643      -0.12507203      -0.12507203 </v>
   <v>      -0.50000000       0.00000000       0.00000000 </v>
   <v>       0.00000000      -0.50000000       0.00000000 </v>
   <v>       0.00000000       0.00000000      -0.50000000 </v>
   <v>      -0.37544727      -0.37544727       0.12469540 </v>
   <v>      -0.37544727       0.12469540      -0.37544727 </v>
   <v>       0.12469540      -0.37544727      -0.37544727 </v>
   <v>       0.37544727      -0.37544727       0.12469540 </v>
   <v>       0.37544727       0.12469540      -0.37544727 </v>
   <v>      -0.12469540      -0.37544727      -0.37544727 </v>
   <v>      -0.37544727       0.37544727       0.12469540 </v>
   <v>       0.12469540       0.37544727      -0.37544727 </v>
   <v>      -0.37544727      -0.12469540      -0.37544727 </v>
   <v>       0.37544727       0.37544727       0.12469540 </v>
   <v>      -0.12469540       0.37544727      -0.37544727 </v>
   <v>       0.37544727      -0.12469540      -0.37544727 </v>
   <v>      -0.37544727       0.12469540       0.37544727 </v>
   <v>       0.12469540      -0.37544727       0.37544727 </v>
   <v>      -0.37544727      -0.37544727      -0.12469540 </v>
   <v>       0.37544727       0.12469540       0.37544727 </v>
   <v>      -0.12469540      -0.37544727       0.37544727 </v>
   <v>       0.37544727      -0.37544727      -0.12469540 </v>
   <v>       0.12469540       0.37544727       0.37544727 </v>
   <v>      -0.37544727      -0.12469540       0.37544727 </v>
   <v>      -0.37544727       0.37544727      -0.12469540 </v>
   <v>      -0.12469540       0.37544727       0.37544727 </v>
   <v>       0.37544727      -0.12469540       0.37544727 </v>
   <v>       0.37544727       0.37544727      -0.12469540 </v>
   <v>       0.25012668       0.25012668      -0.50000000 </v>
   <v>      -0.25012668       0.25012668      -0.50000000 </v>
   <v>       0.25012668      -0.25012668      -0.50000000 </v>
   <v>      -0.25012668      -0.25012668      -0.50000000 </v>
   <v>       0.25012668      -0.50000000       0.25012668 </v>
   <v>      -0.25012668      -0.50000000       0.25012668 </v>
   <v>       0.25012668      -0.50000000      -0.25012668 </v>
   <v>      -0.25012668      -0.50000000      -0.25012668 </v>
   <v>      -0.50000000       0.25012668       0.25012668 </v>
   <v>      -0.50000000      -0.25012668       0.25012668 </v>
   <v>      -0.50000000       0.25012668      -0.25012668 </v>
   <v>      -0.50000000      -0.25012668      -0.25012668 </v>
   <v>      -0.37491761      -0.37491761      -0.37491761 </v>
   <v>       0.37491761      -0.37491761      -0.37491761 </v>
   <v>      -0.37491761       0.37491761      -0.37491761 </v>
   <v>       0.37491761       0.37491761      -0.37491761 </v>
   <v>      -0.37491761      -0.37491761       0.37491761 </v>
   <v>       0.37491761      -0.37491761       0.37491761 </v>
   <v>      -0.37491761       0.37491761       0.37491761 </v>
   <v>       0.37491761       0.37491761       0.37491761 </v>
   <v>      -0.50000000      -0.50000000       0.00000000 </v>
   <v>      -0.50000000       0.00000000      -0.50000000 </v>
   <v>       0.00000000      -0.50000000      -0.50000000 </v>
   <v>      -0.50000000      -0.50000000      -0.50000000 </v>
  </varray>
 </structure>
 <varray name="primitive_index" >
  <v type="int" >        1 </v>
  <v type="int" >       33 </v>
  <v type="int" >       42 </v>
  <v type="int" >       51 </v>
  <v type="int" >       60 </v>
  <v type="int" >       69 </v>
  <v type="int" >       78 </v>
  <v type="int" >       87 </v>
  <v type="int" >       96 </v>
  <v type="int" >        9 </v>
  <v type="int" >       10 </v>
  <v type="int" >       11 </v>
  <v type="int" >       12 </v>
  <v type="int" >       17 </v>
  <v type="int" >       18 </v>
  <v type="int" >       21 </v>
  <v type="int" >       22 </v>
  <v type="int" >       25 </v>
  <v type="int" >       27 </v>
  <v type="int" >       29 </v>
  <v type="int" >       31 </v>
  <v type="int" >       34 </v>
  <v type="int" >       35 </v>
  <v type="int" >       37 </v>
  <v type="int" >       41 </v>
  <v type="int" >       44 </v>
  <v type="int" >       46 </v>
  <v type="int" >       49 </v>
  <v type="int" >       52 </v>
  <v type="int" >       55 </v>
  <v type="int" >       58 </v>
  <v type="int" >       59 </v>
  <v type="int" >       64 </v>
  <v type="int" >       65 </v>
  <v type="int" >       70 </v>
  <v type="int" >       71 </v>
  <v type="int" >       74 </v>
  <v type="int" >       77 </v>
  <v type="int" >       80 </v>
  <v type="int" >       83 </v>
  <v type="int" >       85 </v>
  <v type="int" >       88 </v>
  <v type="int" >       92 </v>
  <v type="int" >       94 </v>
  <v type="int" >       95 </v>
  <v type="int" >        2 </v>
  <v type="int" >        3 </v>
  <v type="int" >        5 </v>
  <v type="int" >       36 </v>
  <v type="int" >       38 </v>
  <v type="int" >       39 </v>
  <v type="int" >       43 </v>
  <v type="int" >       45 </v>
  <v type="int" >       48 </v>
  <v type="int" >       50 </v>
  <v type="int" >       53 </v>
  <v type="int" >       56 </v>
  <v type="int" >       57 </v>
  <v type="int" >       62 </v>
  <v type="int" >       63 </v>
  <v type="int" >       66 </v>
  <v type="int" >       67 </v>
  <v type="int" >       72 </v>
  <v type="int" >       73 </v>
  <v type="int" >       76 </v>
  <v type="int" >       79 </v>
  <v type="int" >       81 </v>
  <v type="int" >       84 </v>
  <v type="int" >       86 </v>
  <v type="int" >       90 </v>
  <v type="int" >       91 </v>
  <v type="int" >       93 </v>
  <v type="int" >       13 </v>
  <v type="int" >       14 </v>
  <v type="int" >       15 </v>
  <v type="int" >       16 </v>
  <v type="int" >       19 </v>
  <v type="int" >       20 </v>
  <v type="int" >       23 </v>
  <v type="int" >       24 </v>
  <v type="int" >       26 </v>
  <v type="int" >       28 </v>
  <v type="int" >       30 </v>
  <v type="int" >       32 </v>
  <v type="int" >       40 </v>
  <v type="int" >       47 </v>
  <v type="int" >       54 </v>
  <v type="int" >       61 </v>
  <v type="int" >       68 </v>
  <v type="int" >       75 </v>
  <v type="int" >       82 </v>
  <v type="int" >       89 </v>
  <v type="int" >        4 </v>
  <v type="int" >        6 </v>
  <v type="int" >        7 </v>
  <v type="int" >        8 </v>
 </varray>
 <kpoints>
  <generation param="Gamma">
   <v type="int" name="divisions">       1        1        1 </v>
   <v name="usershift">      0.00000000       0.00000000       0.00000000 </v>
   <v name="genvec1">      1.00000000       0.00000000       0.00000000 </v>
   <v name="genvec2">      0.00000000       1.00000000       0.00000000 </v>
   <v name="genvec3">      0.00000000       0.00000000       1.00000000 </v>
   <v name="shift">      0.00000000       0.00000000       0.00000000 </v>
  </generation>
  <varray name="kpointlist" >
   <v>       0.00000000       0.00000000       0.00000000 </v>
  </varray>
  <varray name="weights" >
   <v>       1.00000000 </v>
  </varray>
 </kpoints>
 <parameters>
  <separator name="general" >
   <i type="string" name="SYSTEM">unknown system</i>
   <i type="logical" name="LCOMPAT"> F  </i>
  </separator>
  <separator name="electronic" >
   <i type="string" name="PREC">accura</i>
   <i name="ENMAX">    270.00000000</i>
   <i name="ENAUG">    454.73400000</i>
   <i name="EDIFF">      0.00000001</i>
   <i type="int" name="IALGO">    38</i>
   <i type="int" name="IWAVPR">    10</i>
   <i type="int" name="NBANDS">   178</i>
   <i name="NELECT">    256.00000000</i>
   <i type="int" name="TURBO">     0</i>
   <i type="int" name="IRESTART">     0</i>
   <i type="int" name="NREBOOT">     0</i>
   <i type="int" name="NMIN">     0</i>
   <i name="EREF">      0.00000000</i>
   <separator name="electronic smearing" >
    <i type="int" name="ISMEAR">     0</i>
    <i name="SIGMA">      0.01000000</i>
    <i name="KSPACING">      0.50000000</i>
    <i type="logical" name="KGAMMA"> T  </i>
   </separator>
   <separator name="electronic projectors" >
    <i type="logical" name="LREAL"> F  </i>
    <v name="ROPT">      0.00000000      0.00000000      0.00000000</v>
    <i type="int" name="LMAXPAW">  -100</i>
    <i type="int" name="LMAXMIX">     2</i>
    <i type="logical" name="NLSPLINE"> F  </i>
   </separator>
   <separator name="electronic startup" >
    <i type="int" name="ISTART">     0</i>
    <i type="int" name="ICHARG">     2</i>
    <i type="int" name="INIWAV">     1</i>
   </separator>
   <separator name="electronic spin" >
    <i type="int" name="ISPIN">     1</i>
    <i type="logical" name="LNONCOLLINEAR"> F  </i>
    <v name="MAGMOM">      1.00000000      1.00000000      1.00000000      1.00000000      1.00000000      1.00000000      1.00000000      1.00000000      1.00000000      1.00000000      1.00000000      1.00000000      1.00000000      1.00000000      1.00000000      1.00000000      1.00000000      1.00000000      1.00000000      1.00000000
      1.00000000      1.00000000      1.00000000      1.00000000      1.00000000      1.00000000      1.00000000      1.00000000      1.00000000      1.00000000      1.00000000      1.00000000      1.00000000      1.00000000      1.00000000      1.00000000      1.00000000      1.00000000      1.00000000      1.00000000
      1.00000000      1.00000000      1.00000000      1.00000000      1.00000000      1.00000000      1.00000000      1.00000000      1.00000000      1.00000000      1.00000000      1.00000000      1.00000000      1.00000000      1.00000000      1.00000000      1.00000000      1.00000000      1.00000000      1.00000000
      1.00000000      1.00000000      1.00000000      1.00000000      1.00000000      1.00000000      1.00000000      1.00000000      1.00000000      1.00000000      1.00000000      1.00000000      1.00000000      1.00000000      1.00000000      1.00000000      1.00000000      1.00000000      1.00000000      1.00000000
      1.00000000      1.00000000      1.00000000      1.00000000      1.00000000      1.00000000      1.00000000      1.00000000      1.00000000      1.00000000      1.00000000      1.00000000      1.00000000      1.00000000      1.00000000      1.00000000</v>
    <i name="NUPDOWN">     -1.00000000</i>
    <i type="logical" name="LSORBIT"> F  </i>
    <v name="SAXIS">      0.00000000      0.00000000      1.00000000</v>
    <i type="logical" name="LSPIRAL"> F  </i>
    <v name="QSPIRAL">      0.00000000      0.00000000      0.00000000</v>
    <i type="logical" name="LZEROZ"> F  </i>
   </separator>
   <separator name="electronic exchange-correlation" >
    <i type="logical" name="LASPH"> F  </i>
    <i type="logical" name="LMETAGGA"> F  </i>
   </separator>
   <separator name="electronic convergence" >
    <i type="int" name="NELM">    60</i>
    <i type="int" name="NELMDL">    -5</i>
    <i type="int" name="NELMIN">     2</i>
    <i name="ENINI">    270.00000000</i>
    <separator name="electronic convergence detail" >
     <i type="logical" name="LDIAG"> T  </i>
     <i type="logical" name="LSUBROT"> F  </i>
     <i name="WEIMIN">      0.00000000</i>
     <i name="EBREAK">      0.00000000</i>
     <i name="DEPER">      0.30000000</i>
     <i type="int" name="NRMM">     4</i>
     <i name="TIME">      0.40000000</i>
    </separator>
   </separator>
   <separator name="electronic mixer" >
    <i name="AMIX">      0.40000000</i>
    <i name="BMIX">      1.00000000</i>
    <i name="AMIN">      0.10000000</i>
    <i name="AMIX_MAG">      1.60000000</i>
    <i name="BMIX_MAG">      1.00000000</i>
    <separator name="electronic mixer details" >
     <i type="int" name="IMIX">     4</i>
     <i type="logical" name="MIXFIRST"> F  </i>
     <i type="int" name="MAXMIX">   -45</i>
     <i name="WC">    100.00000000</i>
     <i type="int" name="INIMIX">     1</i>
     <i type="int" name="MIXPRE">     1</i>
     <i type="int" name="MREMOVE">     5</i>
    </separator>
   </separator>
   <separator name="electronic dipolcorrection" >
    <i type="logical" name="LDIPOL"> F  </i>
    <i type="logical" name="LMONO"> F  </i>
    <i type="int" name="IDIPOL">     0</i>
    <i name="EPSILON">      1.00000000</i>
    <v name="DIPOL">   -100.00000000   -100.00000000   -100.00000000</v>
    <i name="EFIELD">      0.00000000</i>
   </separator>
  </separator>
  <separator name="grids" >
   <i type="int" name="NGX">    70</i>
   <i type="int" name="NGY">    70</i>
   <i type="int" name="NGZ">    70</i>
   <i type="int" name="NGXF">   140</i>
   <i type="int" name="NGYF">   140</i>
   <i type="int" name="NGZF">   140</i>
   <i type="logical" name="ADDGRID"> F  </i>
  </separator>
  <separator name="ionic" >
   <i type="int" name="NSW">     0</i>
   <i type="int" name="IBRION">    -1</i>
   <i type="int" name="MDALGO">     0</i>
   <i type="int" name="ISIF">     2</i>
   <i name="PSTRESS">      0.00000000</i>
   <i name="EDIFFG">      0.00000010</i>
   <i type="int" name="NFREE">     0</i>
   <i name="POTIM">      0.50000000</i>
   <i name="SMASS">     -3.00000000</i>
   <i name="SCALEE">      1.00000000</i>
  </separator>
  <separator name="ionic md" >
   <i name="TEBEG">      0.00010000</i>
   <i name="TEEND">      0.00010000</i>
   <i type="int" name="NBLOCK">     1</i>
   <i type="int" name="KBLOCK">     1</i>
   <i type="int" name="NPACO">   256</i>
   <i name="APACO">     16.00000000</i>
  </separator>
  <separator name="symmetry" >
   <i type="int" name="ISYM">     0</i>
   <i name="SYMPREC">      0.00001000</i>
  </separator>
  <separator name="dos" >
   <i type="int" name="LORBIT">     0</i>
   <v name="RWIGS">     -1.00000000     -1.00000000     -1.00000000</v>
   <i type="int" name="NEDOS">   301</i>
   <i name="EMIN">     10.00000000</i>
   <i name="EMAX">    -10.00000000</i>
   <i name="EFERMI">      0.00000000</i>
  </separator>
  <separator name="writing" >
   <i type="int" name="NWRITE">     2</i>
   <i type="logical" name="LWAVE"> F  </i>
   <i type="logical" name="LDOWNSAMPLE"> F  </i>
   <i type="logical" name="LCHARG"> F  </i>
   <i type="logical" name="LPARD"> F  </i>
   <i type="logical" name="LVTOT"> F  </i>
   <i type="logical" name="LVHAR"> F  </i>
   <i type="logical" name="LELF"> F  </i>
   <i type="logical" name="LOPTICS"> F  </i>
   <v name="STM">      0.00000000      0.00000000      0.00000000      0.00000000      0.00000000      0.00000000      0.00000000</v>
  </separator>
  <separator name="performance" >
   <i type="int" name="NPAR">     2</i>
   <i type="int" name="NSIM">     4</i>
   <i type="int" name="NBLK">    -1</i>
   <i type="logical" name="LPLANE"> T  </i>
   <i type="logical" name="LSCALAPACK"> T  </i>
   <i type="logical" name="LSCAAWARE"> F  </i>
   <i type="logical" name="LSCALU"> F  </i>
   <i type="logical" name="LASYNC"> F  </i>
   <i type="logical" name="LORBITALREAL"> F  </i>
  </separator>
  <separator name="miscellaneous" >
   <i type="int" name="IDIOT">     3</i>
   <i type="int" name="ISPECIAL">     0</i>
   <i type="logical" name="LMUSIC"> F  </i>
   <v name="POMASS">    118.71000000     28.08500000     24.30500000</v>
   <v name="DARWINR">      0.00000000      0.00000000      0.00000000</v>
   <v name="DARWINV">      1.00000000      1.00000000      1.00000000</v>
   <i type="logical" name="LCORR"> T  </i>
  </separator>
  <i type="logical" name="GGA_COMPAT"> T  </i>
  <i type="logical" name="LBERRY"> F  </i>
  <i type="int" name="ICORELEVEL">     0</i>
  <i type="logical" name="LDAU"> F  </i>
  <i type="int" name="I_CONSTRAINED_M">     0</i>
  <separator name="electronic exchange-correlation" >
   <i type="string" name="GGA">--</i>
   <i type="int" name="VOSKOWN">     0</i>
   <i type="logical" name="LHFCALC"> F  </i>
   <i type="string" name="PRECFOCK"></i>
   <i type="logical" name="LSYMGRAD"> F  </i>
   <i type="logical" name="LHFONE"> F  </i>
   <i type="logical" name="LRHFCALC"> F  </i>
   <i type="logical" name="LTHOMAS"> F  </i>
   <i type="logical" name="LMODELHF"> F  </i>
   <i name="ENCUT4O">     -1.00000000</i>
   <i type="int" name="EXXOEP">     0</i>
   <i type="int" name="FOURORBIT">     0</i>
   <i name="AEXX">      0.00000000</i>
   <i name="HFALPHA">      0.00000000</i>
   <i name="MCALPHA">      0.00000000</i>
   <i name="ALDAX">      1.00000000</i>
   <i name="AGGAX">      1.00000000</i>
   <i name="ALDAC">      1.00000000</i>
   <i name="AGGAC">      1.00000000</i>
   <i type="int" name="NKREDX">     1</i>
   <i type="int" name="NKREDY">     1</i>
   <i type="int" name="NKREDZ">     1</i>
   <i type="logical" name="SHIFTRED"> F  </i>
   <i type="logical" name="ODDONLY"> F  </i>
   <i type="logical" name="EVENONLY"> F  </i>
   <i type="int" name="LMAXFOCK">     0</i>
   <i type="int" name="NMAXFOCKAE">     0</i>
   <i type="logical" name="LFOCKAEDFT"> F  </i>
   <i name="HFSCREEN">      0.00000000</i>
   <i name="HFSCREENC">      0.00000000</i>
   <i type="int" name="NBANDSGWLOW">     0</i>
  </separator>
  <separator name="vdW DFT" >
   <i type="logical" name="LUSE_VDW"> F  </i>
   <i name="Zab_VDW">     -0.84910000</i>
   <i name="PARAM1">      0.12340000</i>
   <i name="PARAM2">      1.00000000</i>
   <i name="PARAM3">      0.00000000</i>
  </separator>
  <separator name="model GW" >
   <i type="int" name="MODEL_GW">     0</i>
   <i name="MODEL_EPS0">     12.94626887</i>
   <i name="MODEL_ALPHA">      1.00000000</i>
  </separator>
  <separator name="linear response parameters" >
   <i type="logical" name="LEPSILON"> F  </i>
   <i type="logical" name="LRPA"> F  </i>
   <i type="logical" name="LNABLA"> F  </i>
   <i type="logical" name="LVEL"> F  </i>
   <i type="int" name="KINTER">     0</i>
   <i name="CSHIFT">      0.10000000</i>
   <i name="OMEGAMAX">     -1.00000000</i>
   <i name="DEG_THRESHOLD">      0.00200000</i>
   <i name="RTIME">     -0.10000000</i>
   <i name="WPLASMAI">      0.00000000</i>
   <v name="DFIELD">      0.00000000      0.00000000      0.00000000</v>
   <v name="WPLASMA">      0.00000000      0.00000000      0.00000000      0.00000000      0.00000000      0.00000000      0.00000000      0.00000000      0.00000000</v>
  </separator>
  <separator name="orbital magnetization" >
   <i type="logical" name="NUCIND"> F  </i>
   <v name="MAGPOS">      0.00000000      0.00000000      0.00000000</v>
   <i type="logical" name="LNICSALL"> T  </i>
   <i type="logical" name="ORBITALMAG"> F  </i>
   <i type="logical" name="LMAGBLOCH"> F  </i>
   <i type="logical" name="LCHIMAG"> F  </i>
   <i type="logical" name="LGAUGE"> T  </i>
   <i type="int" name="MAGATOM">     0</i>
   <v name="MAGDIPOL">      0.00000000      0.00000000      0.00000000</v>
   <v name="AVECCONST">      0.00000000      0.00000000      0.00000000</v>
  </separator>
  <separator name="response functions" >
   <i type="logical" name="LADDER"> F  </i>
   <i type="logical" name="LRPAFORCE"> F  </i>
   <i type="logical" name="LFXC"> F  </i>
   <i type="logical" name="LHARTREE"> T  </i>
   <i type="int" name="IBSE">     0</i>
   <v type="int" name="KPOINT">    -1     0     0     0</v>
   <i type="logical" name="LTCTE"> F  </i>
   <i type="logical" name="LTETE"> F  </i>
   <i type="logical" name="LTRIPLET"> F  </i>
   <i type="logical" name="LFXCEPS"> F  </i>
   <i type="logical" name="LFXHEG"> F  </i>
   <i type="int" name="NATURALO">     2</i>
   <i type="logical" name="L2ORDER"> F  </i>
   <i type="logical" name="LMP2LT"> F  </i>
   <i type="logical" name="LUSEW"> F  </i>
   <i name="ENCUTGW">     -2.00000000</i>
   <i name="ENCUTGWSOFT">     -2.00000000</i>
   <i name="ENCUTLF">     -1.00000000</i>
   <i type="int" name="LMAXMP2">    -1</i>
   <i name="SCISSOR">      0.00000000</i>
   <i type="int" name="NOMEGA">     0</i>
   <i type="int" name="NOMEGAR">     0</i>
   <i type="int" name="NBANDSGW">    -1</i>
   <i type="int" name="NBANDSO">    -1</i>
   <i type="int" name="NBANDSV">    -1</i>
   <i type="int" name="NELM">     1</i>
   <i type="int" name="NELMHF">     1</i>
   <i type="int" name="DIM">     3</i>
   <i type="int" name="ANTIRES">     0</i>
   <i name="OMEGAMAX">    -30.00000000</i>
   <i name="OMEGAMIN">    -30.00000000</i>
   <i name="OMEGATL">   -200.00000000</i>
   <i type="int" name="OMEGAGRID">   140</i>
   <i name="CSHIFT">     -0.10000000</i>
   <i type="logical" name="SELFENERGY"> F  </i>
   <i type="logical" name="LSPECTRAL"> F  </i>
   <i type="logical" name="LSPECTRALGW"> F  </i>
   <i type="logical" name="LSINGLES"> F  </i>
   <i type="logical" name="LFERMIGW"> F  </i>
   <i type="logical" name="ODDONLYGW"> F  </i>
   <i type="logical" name="EVENONLYGW"> F  </i>
   <i type="int" name="NKREDLFX">     1</i>
   <i type="int" name="NKREDLFY">     1</i>
   <i type="int" name="NKREDLFZ">     1</i>
   <i type="int" name="MAXMEM">  2800</i>
   <i type="int" name="TELESCOPE">     0</i>
   <i type="int" name="TAUPAR">     1</i>
   <i type="int" name="OMEGAPAR">    -1</i>
   <i name="LAMBDA">      1.00000000</i>
  </separator>
  <separator name="External order field" >
   <i name="OFIELD_KAPPA">      0.00000000</i>
   <v name="OFIELD_K">      0.00000000      0.00000000      0.00000000</v>
   <i name="OFIELD_Q6_NEAR">      0.00000000</i>
   <i name="OFIELD_Q6_FAR">      0.00000000</i>
   <i name="OFIELD_A">      0.00000000</i>
  </separator>
 </parameters>
 <atominfo>
  <atoms>      96 </atoms>
  <types>       3 </types>
  <array name="atoms" >
   <dimension dim="1">ion</dimension>
   <field type="string">element</field>
   <field type="int">atomtype</field>
   <set>
    <rc><c>Sn</c><c>   1</c></rc>
    <rc><c>Si</c><c>   2</c></rc>
    <rc><c>Si</c><c>   2</c></rc>
    <rc><c>Si</c><c>   2</c></rc>
    <rc><c>Si</c><c>   2</c></rc>
    <rc><c>Si</c><c>   2</c></rc>
    <rc><c>Si</c><c>   2</c></rc>
    <rc><c>Si</c><c>   2</c></rc>
    <rc><c>Si</c><c>   2</c></rc>
    <rc><c>Si</c><c>   2</c></rc>
    <rc><c>Si</c><c>   2</c></rc>
    <rc><c>Si</c><c>   2</c></rc>
    <rc><c>Si</c><c>   2</c></rc>
    <rc><c>Si</c><c>   2</c></rc>
    <rc><c>Si</c><c>   2</c></rc>
    <rc><c>Si</c><c>   2</c></rc>
    <rc><c>Si</c><c>   2</c></rc>
    <rc><c>Si</c><c>   2</c></rc>
    <rc><c>Si</c><c>   2</c></rc>
    <rc><c>Si</c><c>   2</c></rc>
    <rc><c>Si</c><c>   2</c></rc>
    <rc><c>Si</c><c>   2</c></rc>
    <rc><c>Si</c><c>   2</c></rc>
    <rc><c>Si</c><c>   2</c></rc>
    <rc><c>Si</c><c>   2</c></rc>
    <rc><c>Si</c><c>   2</c></rc>
    <rc><c>Si</c><c>   2</c></rc>
    <rc><c>Si</c><c>   2</c></rc>
    <rc><c>Si</c><c>   2</c></rc>
    <rc><c>Si</c><c>   2</c></rc>
    <rc><c>Si</c><c>   2</c></rc>
    <rc><c>Si</c><c>   2</c></rc>
    <rc><c>Mg</c><c>   3</c></rc>
    <rc><c>Mg</c><c>   3</c></rc>
    <rc><c>Mg</c><c>   3</c></rc>
    <rc><c>Mg</c><c>   3</c></rc>
    <rc><c>Mg</c><c>   3</c></rc>
    <rc><c>Mg</c><c>   3</c></rc>
    <rc><c>Mg</c><c>   3</c></rc>
    <rc><c>Mg</c><c>   3</c></rc>
    <rc><c>Mg</c><c>   3</c></rc>
    <rc><c>Mg</c><c>   3</c></rc>
    <rc><c>Mg</c><c>   3</c></rc>
    <rc><c>Mg</c><c>   3</c></rc>
    <rc><c>Mg</c><c>   3</c></rc>
    <rc><c>Mg</c><c>   3</c></rc>
    <rc><c>Mg</c><c>   3</c></rc>
    <rc><c>Mg</c><c>   3</c></rc>
    <rc><c>Mg</c><c>   3</c></rc>
    <rc><c>Mg</c><c>   3</c></rc>
    <rc><c>Mg</c><c>   3</c></rc>
    <rc><c>Mg</c><c>   3</c></rc>
    <rc><c>Mg</c><c>   3</c></rc>
    <rc><c>Mg</c><c>   3</c></rc>
    <rc><c>Mg</c><c>   3</c></rc>
    <rc><c>Mg</c><c>   3</c></rc>
    <rc><c>Mg</c><c>   3</c></rc>
    <rc><c>Mg</c><c>   3</c></rc>
    <rc><c>Mg</c><c>   3</c></rc>
    <rc><c>Mg</c><c>   3</c></rc>
    <rc><c>Mg</c><c>   3</c></rc>
    <rc><c>Mg</c><c>   3</c></rc>
    <rc><c>Mg</c><c>   3</c></rc>
    <rc><c>Mg</c><c>   3</c></rc>
    <rc><c>Mg</c><c>   3</c></rc>
    <rc><c>Mg</c><c>   3</c></rc>
    <rc><c>Mg</c><c>   3</c></rc>
    <rc><c>Mg</c><c>   3</c></rc>
    <rc><c>Mg</c><c>   3</c></rc>
    <rc><c>Mg</c><c>   3</c></rc>
    <rc><c>Mg</c><c>   3</c></rc>
    <rc><c>Mg</c><c>   3</c></rc>
    <rc><c>Mg</c><c>   3</c></rc>
    <rc><c>Mg</c><c>   3</c></rc>
    <rc><c>Mg</c><c>   3</c></rc>
    <rc><c>Mg</c><c>   3</c></rc>
    <rc><c>Mg</c><c>   3</c></rc>
    <rc><c>Mg</c><c>   3</c></rc>
    <rc><c>Mg</c><c>   3</c></rc>
    <rc><c>Mg</c><c>   3</c></rc>
    <rc><c>Mg</c><c>   3</c></rc>
    <rc><c>Mg</c><c>   3</c></rc>
    <rc><c>Mg</c><c>   3</c></rc>
    <rc><c>Mg</c><c>   3</c></rc>
    <rc><c>Mg</c><c>   3</c></rc>
    <rc><c>Mg</c><c>   3</c></rc>
    <rc><c>Mg</c><c>   3</c></rc>
    <rc><c>Mg</c><c>   3</c></rc>
    <rc><c>Mg</c><c>   3</c></rc>
    <rc><c>Mg</c><c>   3</c></rc>
    <rc><c>Mg</c><c>   3</c></rc>
    <rc><c>Mg</c><c>   3</c></rc>
    <rc><c>Mg</c><c>   3</c></rc>
    <rc><c>Mg</c><c>   3</c></rc>
    <rc><c>Mg</c><c>   3</c></rc>
    <rc><c>Mg</c><c>   3</c></rc>
   </set>
  </array>
  <array name="atomtypes" >
   <dimension dim="1">type</dimension>
   <field type="int">atomspertype</field>
   <field type="string">element</field>
   <field>mass</field>
   <field>valence</field>
   <field type="string">pseudopotential</field>
   <set>
    <rc><c>   1</c><c>Sn</c><c>    118.71000000</c><c>      4.00000000</c><c>  PAW_PBE Sn 08Apr2002                  </c></rc>
    <rc><c>  31</c><c>Si</c><c>     28.08500000</c><c>      4.00000000</c><c>  PAW_PBE Si 05Jan2001                  </c></rc>
    <rc><c>  64</c><c>Mg</c><c>     24.30500000</c><c>      2.00000000</c><c>  PAW_PBE Mg 13Apr2007                  </c></rc>
   </set>
  </array>
 </atominfo>
 <structure name="initialpos" >
  <crystal>
   <varray name="basis" >
    <v>      12.74739769       0.00000000       0.00000000 </v>
    <v>       0.00000000      12.74739769       0.00000000 </v>
    <v>       0.00000000       0.00000000      12.74739769 </v>
   </varray>
   <i name="volume">   2071.40301882 </i>
   <varray name="rec_basis" >
    <v>       0.07844738       0.00000000       0.00000000 </v>
    <v>       0.00000000       0.07844738       0.00000000 </v>
    <v>       0.00000000       0.00000000       0.07844738 </v>
   </varray>
  </crystal>
  <varray name="positions" >
   <v>       0.00000000       0.00000000       0.00000000 </v>
   <v>       0.50000000       0.00000000       0.00000000 </v>
   <v>       0.00000000       0.50000000       0.00000000 </v>
   <v>       0.50000000       0.50000000       0.00000000 </v>
   <v>       0.00000000       0.00000000       0.50000000 </v>
   <v>       0.50000000       0.00000000       0.50000000 </v>
   <v>       0.00000000       0.50000000       0.50000000 </v>
   <v>       0.50000000       0.50000000       0.50000000 </v>
   <v>       0.25140293       0.25140293       0.00000000 </v>
   <v>       0.74859707       0.25140293       0.00000000 </v>
   <v>       0.25140293       0.74859707       0.00000000 </v>
   <v>       0.74859707       0.74859707       0.00000000 </v>
   <v>       0.25012668       0.25012668       0.50000000 </v>
   <v>       0.74987332       0.25012668       0.50000000 </v>
   <v>       0.25012668       0.74987332       0.50000000 </v>
   <v>       0.74987332       0.74987332       0.50000000 </v>
   <v>       0.25140293       0.00000000       0.25140293 </v>
   <v>       0.74859707       0.00000000       0.25140293 </v>
   <v>       0.25012668       0.50000000       0.25012668 </v>
   <v>       0.74987332       0.50000000       0.25012668 </v>
   <v>       0.25140293       0.00000000       0.74859707 </v>
   <v>       0.74859707       0.00000000       0.74859707 </v>
   <v>       0.25012668       0.50000000       0.74987332 </v>
   <v>       0.74987332       0.50000000       0.74987332 </v>
   <v>       0.00000000       0.25140293       0.25140293 </v>
   <v>       0.50000000       0.25012668       0.25012668 </v>
   <v>       0.00000000       0.74859707       0.25140293 </v>
   <v>       0.50000000       0.74987332       0.25012668 </v>
   <v>       0.00000000       0.25140293       0.74859707 </v>
   <v>       0.50000000       0.25012668       0.74987332 </v>
   <v>       0.00000000       0.74859707       0.74859707 </v>
   <v>       0.50000000       0.74987332       0.74987332 </v>
   <v>       0.12960836       0.12960836       0.12960836 </v>
   <v>       0.62421357       0.12428756       0.12507203 </v>
   <v>       0.12507203       0.62421357       0.12507203 </v>
   <v>       0.62455273       0.62455273       0.12469540 </v>
   <v>       0.12507203       0.12507203       0.62421357 </v>
   <v>       0.62455273       0.12469540       0.62455273 </v>
   <v>       0.12469540       0.62455273       0.62455273 </v>
   <v>       0.62508239       0.62508239       0.62508239 </v>
   <v>       0.37578643       0.12507203       0.12507203 </v>
   <v>       0.87039164       0.12960836       0.12960836 </v>
   <v>       0.37544727       0.62455273       0.12469540 </v>
   <v>       0.87492797       0.62421357       0.12507203 </v>
   <v>       0.37544727       0.12469540       0.62455273 </v>
   <v>       0.87492797       0.12507203       0.62421357 </v>
   <v>       0.37491761       0.62508239       0.62508239 </v>
   <v>       0.87530460       0.62455273       0.62455273 </v>
   <v>       0.12507203       0.37578643       0.12507203 </v>
   <v>       0.62455273       0.37544727       0.12469540 </v>
   <v>       0.12960836       0.87039164       0.12960836 </v>
   <v>       0.62421357       0.87492797       0.12507203 </v>
   <v>       0.12469540       0.37544727       0.62455273 </v>
   <v>       0.62508239       0.37491761       0.62508239 </v>
   <v>       0.12507203       0.87492797       0.62421357 </v>
   <v>       0.62455273       0.87530460       0.62455273 </v>
   <v>       0.37544727       0.37544727       0.12469540 </v>
   <v>       0.87492797       0.37578643       0.12507203 </v>
   <v>       0.37578643       0.87492797       0.12507203 </v>
   <v>       0.87039164       0.87039164       0.12960836 </v>
   <v>       0.37491761       0.37491761       0.62508239 </v>
   <v>       0.87530460       0.37544727       0.62455273 </v>
   <v>       0.37544727       0.87530460       0.62455273 </v>
   <v>       0.87492797       0.87492797       0.62421357 </v>
   <v>       0.12507203       0.12507203       0.37578643 </v>
   <v>       0.62455273       0.12469540       0.37544727 </v>
   <v>       0.12469540       0.62455273       0.37544727 </v>
   <v>       0.62508239       0.62508239       0.37491761 </v>
   <v>       0.12960836       0.12960836       0.87039164 </v>
   <v>       0.62421357       0.12507203       0.87492797 </v>
   <v>       0.12507203       0.62421357       0.87492797 </v>
   <v>       0.62455273       0.62455273       0.87530460 </v>
   <v>       0.37544727       0.12469540       0.37544727 </v>
   <v>       0.87492797       0.12507203       0.37578643 </v>
   <v>       0.37491761       0.62508239       0.37491761 </v>
   <v>       0.87530460       0.62455273       0.37544727 </v>
   <v>       0.37578643       0.12507203       0.87492797 </v>
   <v>       0.87039164       0.12960836       0.87039164 </v>
   <v>       0.37544727       0.62455273       0.87530460 </v>
   <v>       0.87492797       0.62421357       0.87492797 </v>
   <v>       0.12469540       0.37544727       0.37544727 </v>
   <v>       0.62508239       0.37491761       0.37491761 </v>
   <v>       0.12507203       0.87492797       0.37578643 </v>
   <v>       0.62455273       0.87530460       0.37544727 </v>
   <v>       0.12507203       0.37578643       0.87492797 </v>
   <v>       0.62455273       0.37544727       0.87530460 </v>
   <v>       0.12960836       0.87039164       0.87039164 </v>
   <v>       0.62421357       0.87492797       0.87492797 </v>
   <v>       0.37491761       0.37491761       0.37491761 </v>
   <v>       0.87530460       0.37544727       0.37544727 </v>
   <v>       0.37544727       0.87530460       0.37544727 </v>
   <v>       0.87492797       0.87492797       0.37578643 </v>
   <v>       0.37544727       0.37544727       0.87530460 </v>
   <v>       0.87492797       0.37578643       0.87492797 </v>
   <v>       0.37578643       0.87492797       0.87492797 </v>
   <v>       0.87039164       0.87039164       0.87039164 </v>
  </varray>
 </structure>
 <calculation>
  <scstep>
   <time name="dav">   13.50   13.54</time>
   <time name="total">   14.32   14.37</time>
   <energy>
    <i name="alphaZ">    214.09658884 </i>
    <i name="ewald">  -5218.83189114 </i>
    <i name="hartreedc">   -333.02777883 </i>
    <i name="XCdc">  -3539.85011306 </i>
    <i name="pawpsdc">   7100.88161447 </i>
    <i name="pawaedc">  -3112.42095010 </i>
    <i name="eentropy">     -0.00000000 </i>
    <i name="bandstr">    447.64587278 </i>
    <i name="atom">   4763.39200965 </i>
    <i name="e_fr_energy">    321.88535261 </i>
    <i name="e_wo_entrp">    321.88535261 </i>
    <i name="e_0_energy">    321.88535261 </i>
   </energy>
  </scstep>
  <scstep>
   <time name="dav">   15.64   15.67</time>
   <time name="total">   15.64   15.67</time>
   <energy>
    <i name="e_fr_energy">   -253.38062896 </i>
    <i name="e_wo_entrp">   -253.38062896 </i>
    <i name="e_0_energy">   -253.38062896 </i>
   </energy>
  </scstep>
  <scstep>
   <time name="dav">   15.69   15.72</time>
   <time name="total">   15.69   15.72</time>
   <energy>
    <i name="e_fr_energy">   -296.45472058 </i>
    <i name="e_wo_entrp">   -296.45472058 </i>
    <i name="e_0_energy">   -296.45472058 </i>
   </energy>
  </scstep>
  <scstep>
   <time name="dav">   15.46   15.49</time>
   <time name="total">   15.46   15.49</time>
   <energy>
    <i name="e_fr_energy">   -297.34076518 </i>
    <i name="e_wo_entrp">   -297.34076518 </i>
    <i name="e_0_energy">   -297.34076518 </i>
   </energy>
  </scstep>
  <scstep>
   <time name="dav">   15.93   15.96</time>
   <time name="total">   16.34   16.37</time>
   <energy>
    <i name="e_fr_energy">   -297.36480449 </i>
    <i name="e_wo_entrp">   -297.36480449 </i>
    <i name="e_0_energy">   -297.36480449 </i>
   </energy>
  </scstep>
  <scstep>
   <time name="dav">   13.55   13.57</time>
   <time name="total">   14.76   14.79</time>
   <energy>
    <i name="e_fr_energy">   -280.23940316 </i>
    <i name="e_wo_entrp">   -280.23940316 </i>
    <i name="e_0_energy">   -280.23940316 </i>
   </energy>
  </scstep>
  <scstep>
   <time name="dav">   14.58   14.61</time>
   <time name="total">   15.82   15.84</time>
   <energy>
    <i name="e_fr_energy">   -277.76410974 </i>
    <i name="e_wo_entrp">   -277.76410969 </i>
    <i name="e_0_energy">   -277.76410971 </i>
   </energy>
  </scstep>
  <scstep>
   <time name="dav">   14.42   14.44</time>
   <time name="total">   15.64   15.67</time>
   <energy>
    <i name="e_fr_energy">   -277.76823826 </i>
    <i name="e_wo_entrp">   -277.76823826 </i>
    <i name="e_0_energy">   -277.76823826 </i>
   </energy>
  </scstep>
  <scstep>
   <time name="dav">   15.11   15.14</time>
   <time name="total">   16.33   16.36</time>
   <energy>
    <i name="e_fr_energy">   -277.76500231 </i>
    <i name="e_wo_entrp">   -277.76500231 </i>
    <i name="e_0_energy">   -277.76500231 </i>
   </energy>
  </scstep>
  <scstep>
   <time name="dav">   14.88   14.91</time>
   <time name="total">   16.11   16.13</time>
   <energy>
    <i name="e_fr_energy">   -277.76823415 </i>
    <i name="e_wo_entrp">   -277.76823415 </i>
    <i name="e_0_energy">   -277.76823415 </i>
   </energy>
  </scstep>
  <scstep>
   <time name="dav">   14.88   14.91</time>
   <time name="total">   16.11   16.13</time>
   <energy>
    <i name="e_fr_energy">   -277.76866851 </i>
    <i name="e_wo_entrp">   -277.76866851 </i>
    <i name="e_0_energy">   -277.76866851 </i>
   </energy>
  </scstep>
  <scstep>
   <time name="dav">   16.03   16.06</time>
   <time name="total">   17.24   17.27</time>
   <energy>
    <i name="e_fr_energy">   -277.76856894 </i>
    <i name="e_wo_entrp">   -277.76856894 </i>
    <i name="e_0_energy">   -277.76856894 </i>
   </energy>
  </scstep>
  <scstep>
   <time name="dav">   15.35   15.38</time>
   <time name="total">   16.56   16.59</time>
   <energy>
    <i name="e_fr_energy">   -277.76854200 </i>
    <i name="e_wo_entrp">   -277.76854200 </i>
    <i name="e_0_energy">   -277.76854200 </i>
   </energy>
  </scstep>
  <scstep>
   <time name="dav">   14.54   14.56</time>
   <time name="total">   15.75   15.78</time>
   <energy>
    <i name="e_fr_energy">   -277.76854870 </i>
    <i name="e_wo_entrp">   -277.76854870 </i>
    <i name="e_0_energy">   -277.76854870 </i>
   </energy>
  </scstep>
  <scstep>
   <time name="dav">   14.42   14.45</time>
   <time name="total">   15.64   15.67</time>
   <energy>
    <i name="e_fr_energy">   -277.76854818 </i>
    <i name="e_wo_entrp">   -277.76854818 </i>
    <i name="e_0_energy">   -277.76854818 </i>
   </energy>
  </scstep>
  <scstep>
   <time name="dav">   15.10   15.13</time>
   <time name="total">   16.32   16.35</time>
   <energy>
    <i name="e_fr_energy">   -277.76854844 </i>
    <i name="e_wo_entrp">   -277.76854844 </i>
    <i name="e_0_energy">   -277.76854844 </i>
   </energy>
  </scstep>
  <scstep>
   <time name="dav">   14.64   14.66</time>
   <time name="total">   15.85   15.88</time>
   <energy>
    <i name="e_fr_energy">   -277.76854864 </i>
    <i name="e_wo_entrp">   -277.76854864 </i>
    <i name="e_0_energy">   -277.76854864 </i>
   </energy>
  </scstep>
  <scstep>
   <time name="dav">   14.41   14.43</time>
   <time name="total">   15.63   15.65</time>
   <energy>
    <i name="e_fr_energy">   -277.76854861 </i>
    <i name="e_wo_entrp">   -277.76854861 </i>
    <i name="e_0_energy">   -277.76854861 </i>
   </energy>
  </scstep>
  <scstep>
   <time name="dav">   10.94   10.96</time>
   <time name="total">   12.15   12.18</time>
   <energy>
    <i name="e_fr_energy">   -277.76854864 </i>
    <i name="e_wo_entrp">   -277.76854864 </i>
    <i name="e_0_energy">   -277.76854864 </i>
   </energy>
  </scstep>
  <scstep>
   <time name="dav">   10.01   10.03</time>
   <time name="total">   11.23   11.25</time>
   <energy>
    <i name="e_fr_energy">   -277.76854867 </i>
    <i name="e_wo_entrp">   -277.76854867 </i>
    <i name="e_0_energy">   -277.76854867 </i>
   </energy>
  </scstep>
  <scstep>
   <time name="dav">    9.72    9.73</time>
   <time name="total">   10.94   10.96</time>
   <energy>
    <i name="e_fr_energy">   -277.76854865 </i>
    <i name="e_wo_entrp">   -277.76854865 </i>
    <i name="e_0_energy">   -277.76854865 </i>
   </energy>
  </scstep>
  <scstep>
   <time name="dav">    9.93    9.95</time>
   <time name="total">   10.74   10.76</time>
   <energy>
    <i name="alphaZ">    214.09658884 </i>
    <i name="ewald">  -5218.83189114 </i>
    <i name="hartreedc">   -486.12475556 </i>
    <i name="XCdc">  -3511.70761690 </i>
    <i name="pawpsdc">  17714.26001045 </i>
    <i name="pawaedc"> -13730.58180729 </i>
    <i name="eentropy">     -0.00000000 </i>
    <i name="bandstr">    -22.27108670 </i>
    <i name="atom">   4763.39200965 </i>
    <i name="e_fr_energy">   -277.76854865 </i>
    <i name="e_wo_entrp">   -277.76854865 </i>
    <i name="e_0_energy">   -277.76854865 </i>
   </energy>
  </scstep>
  <structure>
   <crystal>
    <varray name="basis" >
     <v>      12.74739769       0.00000000       0.00000000 </v>
     <v>       0.00000000      12.74739769       0.00000000 </v>
     <v>       0.00000000       0.00000000      12.74739769 </v>
    </varray>
    <i name="volume">   2071.40301882 </i>
    <varray name="rec_basis" >
     <v>       0.07844738       0.00000000       0.00000000 </v>
     <v>       0.00000000       0.07844738       0.00000000 </v>
     <v>       0.00000000       0.00000000       0.07844738 </v>
    </varray>
   </crystal>
   <varray name="positions" >
    <v>       0.00000000       0.00000000       0.00000000 </v>
    <v>       0.50000000       0.00000000       0.00000000 </v>
    <v>       0.00000000       0.50000000       0.00000000 </v>
    <v>       0.50000000       0.50000000       0.00000000 </v>
    <v>       0.00000000       0.00000000       0.50000000 </v>
    <v>       0.50000000       0.00000000       0.50000000 </v>
    <v>       0.00000000       0.50000000       0.50000000 </v>
    <v>       0.50000000       0.50000000       0.50000000 </v>
    <v>       0.25140293       0.25140293       0.00000000 </v>
    <v>       0.74859707       0.25140293       0.00000000 </v>
    <v>       0.25140293       0.74859707       0.00000000 </v>
    <v>       0.74859707       0.74859707       0.00000000 </v>
    <v>       0.25012668       0.25012668       0.50000000 </v>
    <v>       0.74987332       0.25012668       0.50000000 </v>
    <v>       0.25012668       0.74987332       0.50000000 </v>
    <v>       0.74987332       0.74987332       0.50000000 </v>
    <v>       0.25140293       0.00000000       0.25140293 </v>
    <v>       0.74859707       0.00000000       0.25140293 </v>
    <v>       0.25012668       0.50000000       0.25012668 </v>
    <v>       0.74987332       0.50000000       0.25012668 </v>
    <v>       0.25140293       0.00000000       0.74859707 </v>
    <v>       0.74859707       0.00000000       0.74859707 </v>
    <v>       0.25012668       0.50000000       0.74987332 </v>
    <v>       0.74987332       0.50000000       0.74987332 </v>
    <v>       0.00000000       0.25140293       0.25140293 </v>
    <v>       0.50000000       0.25012668       0.25012668 </v>
    <v>       0.00000000       0.74859707       0.25140293 </v>
    <v>       0.50000000       0.74987332       0.25012668 </v>
    <v>       0.00000000       0.25140293       0.74859707 </v>
    <v>       0.50000000       0.25012668       0.74987332 </v>
    <v>       0.00000000       0.74859707       0.74859707 </v>
    <v>       0.50000000       0.74987332       0.74987332 </v>
    <v>       0.12960836       0.12960836       0.12960836 </v>
    <v>       0.62421357       0.12428756       0.12507203 </v>
    <v>       0.12507203       0.62421357       0.12507203 </v>
    <v>       0.62455273       0.62455273       0.12469540 </v>
    <v>       0.12507203       0.12507203       0.62421357 </v>
    <v>       0.62455273       0.12469540       0.62455273 </v>
    <v>       0.12469540       0.62455273       0.62455273 </v>
    <v>       0.62508239       0.62508239       0.62508239 </v>
    <v>       0.37578643       0.12507203       0.12507203 </v>
    <v>       0.87039164       0.12960836       0.12960836 </v>
    <v>       0.37544727       0.62455273       0.12469540 </v>
    <v>       0.87492797       0.62421357       0.12507203 </v>
    <v>       0.37544727       0.12469540       0.62455273 </v>
    <v>       0.87492797       0.12507203       0.62421357 </v>
    <v>       0.37491761       0.62508239       0.62508239 </v>
    <v>       0.87530460       0.62455273       0.62455273 </v>
    <v>       0.12507203       0.37578643       0.12507203 </v>
    <v>       0.62455273       0.37544727       0.12469540 </v>
    <v>       0.12960836       0.87039164       0.12960836 </v>
    <v>       0.62421357       0.87492797       0.12507203 </v>
    <v>       0.12469540       0.37544727       0.62455273 </v>
    <v>       0.62508239       0.37491761       0.62508239 </v>
    <v>       0.12507203       0.87492797       0.62421357 </v>
    <v>       0.62455273       0.87530460       0.62455273 </v>
    <v>       0.37544727       0.37544727       0.12469540 </v>
    <v>       0.87492797       0.37578643       0.12507203 </v>
    <v>       0.37578643       0.87492797       0.12507203 </v>
    <v>       0.87039164       0.87039164       0.12960836 </v>
    <v>       0.37491761       0.37491761       0.62508239 </v>
    <v>       0.87530460       0.37544727       0.62455273 </v>
    <v>       0.37544727       0.87530460       0.62455273 </v>
    <v>       0.87492797       0.87492797       0.62421357 </v>
    <v>       0.12507203       0.12507203       0.37578643 </v>
    <v>       0.62455273       0.12469540       0.37544727 </v>
    <v>       0.12469540       0.62455273       0.37544727 </v>
    <v>       0.62508239       0.62508239       0.37491761 </v>
    <v>       0.12960836       0.12960836       0.87039164 </v>
    <v>       0.62421357       0.12507203       0.87492797 </v>
    <v>       0.12507203       0.62421357       0.87492797 </v>
    <v>       0.62455273       0.62455273       0.87530460 </v>
    <v>       0.37544727       0.12469540       0.37544727 </v>
    <v>       0.87492797       0.12507203       0.37578643 </v>
    <v>       0.37491761       0.62508239       0.37491761 </v>
    <v>       0.87530460       0.62455273       0.37544727 </v>
    <v>       0.37578643       0.12507203       0.87492797 </v>
    <v>       0.87039164       0.12960836       0.87039164 </v>
    <v>       0.37544727       0.62455273       0.87530460 </v>
    <v>       0.87492797       0.62421357       0.87492797 </v>
    <v>       0.12469540       0.37544727       0.37544727 </v>
    <v>       0.62508239       0.37491761       0.37491761 </v>
    <v>       0.12507203       0.87492797       0.37578643 </v>
    <v>       0.62455273       0.87530460       0.37544727 </v>
    <v>       0.12507203       0.37578643       0.87492797 </v>
    <v>       0.62455273       0.37544727       0.87530460 </v>
    <v>       0.12960836       0.87039164       0.87039164 </v>
    <v>       0.62421357       0.87492797       0.87492797 </v>
    <v>       0.37491761       0.37491761       0.37491761 </v>
    <v>       0.87530460       0.37544727       0.37544727 </v>
    <v>       0.37544727       0.87530460       0.37544727 </v>
    <v>       0.87492797       0.87492797       0.37578643 </v>
    <v>       0.37544727       0.37544727       0.87530460 </v>
    <v>       0.87492797       0.37578643       0.87492797 </v>
    <v>       0.37578643       0.87492797       0.87492797 </v>
    <v>       0.87039164       0.87039164       0.87039164 </v>
   </varray>
  </structure>
  <varray name="forces" >
   <v>       0.00003062      -0.00061183       0.00045410 </v>
   <v>      -0.00382100      -0.00658381      -0.00381790 </v>
   <v>       0.00040321       0.00060234       0.00018547 </v>
   <v>      -0.00027366       0.00063343      -0.00018936 </v>
   <v>      -0.00064530      -0.00028886      -0.00060492 </v>
   <v>       0.00045006      -0.00064179       0.00011651 </v>
   <v>      -0.00000203       0.00016421       0.00004352 </v>
   <v>       0.00015432       0.00057737       0.00041576 </v>
   <v>       0.00647712       0.00574368      -0.00047843 </v>
   <v>      -0.00964132       0.00022795       0.00319620 </v>
   <v>       0.00681893      -0.00571273      -0.00019447 </v>
   <v>      -0.00653944      -0.00566266       0.00022451 </v>
   <v>      -0.00403074      -0.00373102       0.00059471 </v>
   <v>       0.00397208      -0.00407104      -0.00008881 </v>
   <v>      -0.00339352       0.00368961      -0.00002215 </v>
   <v>       0.00368698       0.00410028      -0.00041565 </v>
   <v>       0.00630539      -0.00062063       0.00590519 </v>
   <v>      -0.00292993      -0.00622438       0.00973669 </v>
   <v>      -0.00385245       0.00060605      -0.00363295 </v>
   <v>       0.00370716       0.00068623      -0.00324287 </v>
   <v>       0.00695448      -0.00027011      -0.00576121 </v>
   <v>      -0.00675802      -0.00059388      -0.00639649 </v>
   <v>      -0.00346175       0.00021987       0.00343442 </v>
   <v>       0.00328917       0.00062236       0.00302673 </v>
   <v>      -0.00013108       0.00575503       0.00678236 </v>
   <v>       0.00363879      -0.00989620      -0.00715467 </v>
   <v>      -0.00046195      -0.00572049       0.00654457 </v>
   <v>       0.00019103       0.00416178      -0.00368159 </v>
   <v>       0.00057630       0.00606598      -0.00692513 </v>
   <v>      -0.00050448      -0.00406642       0.00353556 </v>
   <v>      -0.00005691      -0.00610787      -0.00633708 </v>
   <v>      -0.00021233       0.00408052       0.00386933 </v>
   <v>      -0.01486237      -0.01479565      -0.01485956 </v>
   <v>      -0.00127122       0.04191450       0.00130963 </v>
   <v>       0.00052272      -0.00162631       0.00052388 </v>
   <v>      -0.00047387      -0.00097414      -0.00034773 </v>
   <v>       0.00052433       0.00214900      -0.00155990 </v>
   <v>      -0.00048206      -0.00028274      -0.00047799 </v>
   <v>      -0.00034666      -0.00065390      -0.00047261 </v>
   <v>      -0.00088696      -0.00095471      -0.00088656 </v>
   <v>       0.00158712       0.00324536       0.00187403 </v>
   <v>       0.01464213      -0.01212163      -0.01614328 </v>
   <v>       0.00047521      -0.00075460      -0.00069554 </v>
   <v>      -0.00051960      -0.00184410       0.00087060 </v>
   <v>       0.00047609       0.00026219      -0.00081345 </v>
   <v>      -0.00052718       0.00113600      -0.00122486 </v>
   <v>       0.00089353      -0.00097456      -0.00081013 </v>
   <v>       0.00033779      -0.00055515      -0.00054892 </v>
   <v>       0.00052061       0.00157260       0.00052748 </v>
   <v>      -0.00049542      -0.00918134      -0.00035539 </v>
   <v>      -0.01487068       0.01484101      -0.01486259 </v>
   <v>      -0.00159300      -0.01053674       0.00053104 </v>
   <v>      -0.00035270      -0.00023305      -0.00047120 </v>
   <v>      -0.00089240       0.00089146      -0.00088825 </v>
   <v>       0.00052141      -0.00123957      -0.00156800 </v>
   <v>      -0.00048595       0.00033057      -0.00048283 </v>
   <v>       0.00151294      -0.00051510       0.00035494 </v>
   <v>      -0.00153728       0.00058473      -0.00020312 </v>
   <v>       0.00052826      -0.00153866       0.00122912 </v>
   <v>       0.01590846       0.01387070      -0.01554944 </v>
   <v>       0.00055764       0.00063593      -0.00102536 </v>
   <v>       0.00068643       0.00022011      -0.00033945 </v>
   <v>       0.00081729       0.00008662      -0.00060793 </v>
   <v>      -0.00086107      -0.00079285      -0.00144323 </v>
   <v>       0.00087003       0.00113593       0.00156696 </v>
   <v>      -0.00186113       0.00230802       0.00044728 </v>
   <v>      -0.00043001      -0.00056126       0.00046994 </v>
   <v>      -0.00055008      -0.00117604       0.00089312 </v>
   <v>      -0.01520616      -0.01425622       0.01486203 </v>
   <v>      -0.00022555       0.00317964      -0.00051320 </v>
   <v>       0.00060569      -0.00165046      -0.00052008 </v>
   <v>      -0.00081741      -0.00075036       0.00033696 </v>
   <v>       0.00116695       0.00169971      -0.00024742 </v>
   <v>       0.00020271       0.00259599       0.00227710 </v>
   <v>       0.00075787      -0.00108689       0.00102600 </v>
   <v>       0.00021608      -0.00065786       0.00033518 </v>
   <v>       0.00086779       0.00259683      -0.00123286 </v>
   <v>       0.01419216      -0.01282277       0.01558237 </v>
   <v>       0.00060865      -0.00065617       0.00047793 </v>
   <v>      -0.00038801      -0.00176119      -0.00065745 </v>
   <v>      -0.00021425       0.00022948       0.00081437 </v>
   <v>      -0.00160835      -0.00010401      -0.00013895 </v>
   <v>       0.00065704      -0.00079275       0.00121845 </v>
   <v>      -0.00119482      -0.00066725       0.00149118 </v>
   <v>       0.00038786       0.00131673      -0.00086192 </v>
   <v>       0.00025835      -0.00052937       0.00140716 </v>
   <v>      -0.01499275       0.01459736       0.01521427 </v>
   <v>      -0.00087629      -0.00153193      -0.00156278 </v>
   <v>       0.00137978      -0.00112710       0.00040626 </v>
   <v>       0.00025559       0.00063531       0.00038603 </v>
   <v>       0.00037491       0.00050594       0.00055794 </v>
   <v>      -0.00001842      -0.00258975       0.00204834 </v>
   <v>       0.00057060       0.00063211       0.00044607 </v>
   <v>      -0.00104115      -0.00047052      -0.00001256 </v>
   <v>       0.00109657      -0.00257932      -0.00099571 </v>
   <v>       0.01496247       0.01503924       0.01477263 </v>
  </varray>
  <varray name="stress" >
   <v>      -1.01919667       0.00071171       0.00969627 </v>
   <v>       0.00071164      -1.01763349      -0.00011830 </v>
   <v>       0.00969617      -0.00011843      -1.01891212 </v>
  </varray>
  <energy>
   <i name="e_fr_energy">   -277.76854865 </i>
   <i name="e_wo_entrp">   -277.76854865 </i>
   <i name="e_0_energy">     -0.00000000 </i>
  </energy>
  <time name="totalsc">  364.35  365.02</time>
  <eigenvalues>
   <array>
    <dimension dim="1">band</dimension>
    <dimension dim="2">kpoint</dimension>
    <dimension dim="3">spin</dimension>
    <field>eigene</field>
    <field>occ</field>
    <set>
     <set comment="spin 1">
      <set comment="kpoint 1">
       <r>   -5.4896    1.0000 </r>
       <r>   -4.7787    1.0000 </r>
       <r>   -4.7780    1.0000 </r>
       <r>   -4.7693    1.0000 </r>
       <r>   -4.7687    1.0000 </r>
       <r>   -4.7681    1.0000 </r>
       <r>   -4.7410    1.0000 </r>
       <r>   -4.2081    1.0000 </r>
       <r>   -4.2066    1.0000 </r>
       <r>   -4.2008    1.0000 </r>
       <r>   -4.2003    1.0000 </r>
       <r>   -4.1995    1.0000 </r>
       <r>   -4.1957    1.0000 </r>
       <r>   -4.1947    1.0000 </r>
       <r>   -4.1944    1.0000 </r>
       <r>   -4.1859    1.0000 </r>
       <r>   -4.1851    1.0000 </r>
       <r>   -4.1848    1.0000 </r>
       <r>   -4.1417    1.0000 </r>
       <r>   -4.0666    1.0000 </r>
       <r>   -4.0656    1.0000 </r>
       <r>   -4.0654    1.0000 </r>
       <r>   -4.0506    1.0000 </r>
       <r>   -3.5081    1.0000 </r>
       <r>   -3.5073    1.0000 </r>
       <r>   -3.4980    1.0000 </r>
       <r>   -3.4680    1.0000 </r>
       <r>   -3.4674    1.0000 </r>
       <r>   -3.4604    1.0000 </r>
       <r>   -3.4601    1.0000 </r>
       <r>   -3.4593    1.0000 </r>
       <r>   -3.3910    1.0000 </r>
       <r>   -1.1924    1.0000 </r>
       <r>   -1.1587    1.0000 </r>
       <r>   -1.1583    1.0000 </r>
       <r>   -1.1575    1.0000 </r>
       <r>   -0.8439    1.0000 </r>
       <r>   -0.8439    1.0000 </r>
       <r>   -0.8438    1.0000 </r>
       <r>   -0.0451    1.0000 </r>
       <r>   -0.0447    1.0000 </r>
       <r>   -0.0438    1.0000 </r>
       <r>   -0.0353    1.0000 </r>
       <r>   -0.0343    1.0000 </r>
       <r>   -0.0339    1.0000 </r>
       <r>   -0.0259    1.0000 </r>
       <r>   -0.0256    1.0000 </r>
       <r>   -0.0249    1.0000 </r>
       <r>   -0.0019    1.0000 </r>
       <r>   -0.0005    1.0000 </r>
       <r>    0.0001    1.0000 </r>
       <r>    0.0101    1.0000 </r>
       <r>    0.0108    1.0000 </r>
       <r>    0.0110    1.0000 </r>
       <r>    0.0113    1.0000 </r>
       <r>    0.0118    1.0000 </r>
       <r>    0.0142    1.0000 </r>
       <r>    0.0146    1.0000 </r>
       <r>    0.0154    1.0000 </r>
       <r>    0.0538    1.0000 </r>
       <r>    0.0540    1.0000 </r>
       <r>    0.0543    1.0000 </r>
       <r>    0.0685    1.0000 </r>
       <r>    0.7627    1.0000 </r>
       <r>    0.7634    1.0000 </r>
       <r>    0.7694    1.0000 </r>
       <r>    0.7827    1.0000 </r>
       <r>    0.7841    1.0000 </r>
       <r>    0.7842    1.0000 </r>
       <r>    0.8003    1.0000 </r>
       <r>    0.8011    1.0000 </r>
       <r>    0.8014    1.0000 </r>
       <r>    0.8016    1.0000 </r>
       <r>    0.8023    1.0000 </r>
       <r>    0.8025    1.0000 </r>
       <r>    0.9186    1.0000 </r>
       <r>    0.9356    1.0000 </r>
       <r>    0.9357    1.0000 </r>
       <r>    0.9361    1.0000 </r>
       <r>    0.9577    1.0000 </r>
       <r>    0.9579    1.0000 </r>
       <r>    1.1732    1.0000 </r>
       <r>    1.1736    1.0000 </r>
       <r>    1.1737    1.0000 </r>
       <r>    1.1739    1.0000 </r>
       <r>    1.1741    1.0000 </r>
       <r>    1.2245    1.0000 </r>
       <r>    1.6499    1.0000 </r>
       <r>    1.6501    1.0000 </r>
       <r>    1.6502    1.0000 </r>
       <r>    1.6525    1.0000 </r>
       <r>    1.6526    1.0000 </r>
       <r>    1.6528    1.0000 </r>
       <r>    2.3239    1.0000 </r>
       <r>    2.3243    1.0000 </r>
       <r>    2.3245    1.0000 </r>
       <r>    2.3304    1.0000 </r>
       <r>    2.3310    1.0000 </r>
       <r>    2.3311    1.0000 </r>
       <r>    2.3312    1.0000 </r>
       <r>    2.3315    1.0000 </r>
       <r>    2.3318    1.0000 </r>
       <r>    2.3802    1.0000 </r>
       <r>    2.3811    1.0000 </r>
       <r>    2.3814    1.0000 </r>
       <r>    2.7669    1.0000 </r>
       <r>    2.7670    1.0000 </r>
       <r>    2.7678    1.0000 </r>
       <r>    2.7787    1.0000 </r>
       <r>    2.7792    1.0000 </r>
       <r>    2.7795    1.0000 </r>
       <r>    2.7877    1.0000 </r>
       <r>    2.7951    1.0000 </r>
       <r>    2.7955    1.0000 </r>
       <r>    2.8223    1.0000 </r>
       <r>    2.8224    1.0000 </r>
       <r>    2.8226    1.0000 </r>
       <r>    2.8684    1.0000 </r>
       <r>    2.8690    1.0000 </r>
       <r>    2.8944    1.0000 </r>
       <r>    2.8948    1.0000 </r>
       <r>    2.8956    1.0000 </r>
       <r>    2.9780    1.0000 </r>
       <r>    2.9787    1.0000 </r>
       <r>    2.9794    1.0000 </r>
       <r>    3.6210    1.0000 </r>
       <r>    3.6212    1.0000 </r>
       <r>    3.6214    1.0000 </r>
       <r>    3.7511    0.0000 </r>
       <r>    3.7924    0.0000 </r>
       <r>    3.7933    0.0000 </r>
       <r>    3.9521    0.0000 </r>
       <r>    3.9521    0.0000 </r>
       <r>    3.9522    0.0000 </r>
       <r>    4.7270    0.0000 </r>
       <r>    4.7276    0.0000 </r>
       <r>    4.7582    0.0000 </r>
       <r>    4.7590    0.0000 </r>
       <r>    4.7593    0.0000 </r>
       <r>    4.7624    0.0000 </r>
       <r>    4.8106    0.0000 </r>
       <r>    4.8109    0.0000 </r>
       <r>    4.8111    0.0000 </r>
       <r>    4.8420    0.0000 </r>
       <r>    5.3098    0.0000 </r>
       <r>    5.3101    0.0000 </r>
       <r>    5.3105    0.0000 </r>
       <r>    5.3190    0.0000 </r>
       <r>    5.3204    0.0000 </r>
       <r>    5.3252    0.0000 </r>
       <r>    5.3255    0.0000 </r>
       <r>    5.3256    0.0000 </r>
       <r>    5.3333    0.0000 </r>
       <r>    5.3643    0.0000 </r>
       <r>    5.3650    0.0000 </r>
       <r>    5.3653    0.0000 </r>
       <r>    5.3726    0.0000 </r>
       <r>    5.3732    0.0000 </r>
       <r>    5.3735    0.0000 </r>
       <r>    5.3738    0.0000 </r>
       <r>    5.4338    0.0000 </r>
       <r>    5.4339    0.0000 </r>
       <r>    5.5274    0.0000 </r>
       <r>    6.0775    0.0000 </r>
       <r>    6.0784    0.0000 </r>
       <r>    6.0787    0.0000 </r>
       <r>    6.0998    0.0000 </r>
       <r>    6.1003    0.0000 </r>
       <r>    6.1009    0.0000 </r>
       <r>    6.1455    0.0000 </r>
       <r>    6.1456    0.0000 </r>
       <r>    6.1492    0.0000 </r>
       <r>    6.1493    0.0000 </r>
       <r>    6.1496    0.0000 </r>
       <r>    6.2465    0.0000 </r>
       <r>    6.2501    0.0000 </r>
       <r>    6.2568    0.0000 </r>
       <r>    6.2741    0.0000 </r>
      </set>
     </set>
    </set>
   </array>
  </eigenvalues>
  <separator name="orbital magnetization" >
   <v name="MAGDIPOLOUT">      0.00000000      0.00000000      0.00000000</v>
  </separator>
  <dos>
   <i name="efermi">      3.68117382 </i>
   <total>
    <array>
     <dimension dim="1">gridpoints</dimension>
     <dimension dim="2">spin</dimension>
     <field>energy</field>
     <field>total</field>
     <field>integrated</field>
     <set>
      <set comment="spin 1">
       <r>    -6.0778     0.0000     0.0000 </r>
       <r>    -6.0346     0.0000     0.0000 </r>
       <r>    -5.9915     0.0000     0.0000 </r>
       <r>    -5.9484     0.0000     0.0000 </r>
       <r>    -5.9052     0.0000     0.0000 </r>
       <r>    -5.8621     0.0000     0.0000 </r>
       <r>    -5.8190     0.0000     0.0000 </r>
       <r>    -5.7758     0.0000     0.0000 </r>
       <r>    -5.7327     0.0000     0.0000 </r>
       <r>    -5.6896     0.0000     0.0000 </r>
       <r>    -5.6464     0.0000     0.0000 </r>
       <r>    -5.6033     0.0000     0.0000 </r>
       <r>    -5.5602     0.0000     0.0000 </r>
       <r>    -5.5170     0.0024     0.0001 </r>
       <r>    -5.4739    45.7500     1.9735 </r>
       <r>    -5.4308     0.6154     2.0000 </r>
       <r>    -5.3876     0.0000     2.0000 </r>
       <r>    -5.3445     0.0000     2.0000 </r>
       <r>    -5.3014     0.0000     2.0000 </r>
       <r>    -5.2582     0.0000     2.0000 </r>
       <r>    -5.2151     0.0000     2.0000 </r>
       <r>    -5.1720     0.0000     2.0000 </r>
       <r>    -5.1288     0.0000     2.0000 </r>
       <r>    -5.0857     0.0000     2.0000 </r>
       <r>    -5.0426     0.0000     2.0000 </r>
       <r>    -4.9994     0.0000     2.0000 </r>
       <r>    -4.9563     0.0000     2.0000 </r>
       <r>    -4.9132     0.0000     2.0000 </r>
       <r>    -4.8700     0.0000     2.0000 </r>
       <r>    -4.8269     0.0000     2.0000 </r>
       <r>    -4.7838    22.9078     2.9881 </r>
       <r>    -4.7406   233.0023    13.0383 </r>
       <r>    -4.6975    22.2965    14.0000 </r>
       <r>    -4.6544     0.0000    14.0000 </r>
       <r>    -4.6112     0.0000    14.0000 </r>
       <r>    -4.5681     0.0000    14.0000 </r>
       <r>    -4.5250     0.0000    14.0000 </r>
       <r>    -4.4818     0.0000    14.0000 </r>
       <r>    -4.4387     0.0000    14.0000 </r>
       <r>    -4.3956     0.0000    14.0000 </r>
       <r>    -4.3524     0.0000    14.0000 </r>
       <r>    -4.3093     0.0000    14.0000 </r>
       <r>    -4.2662     0.0000    14.0000 </r>
       <r>    -4.2230     1.3519    14.0583 </r>
       <r>    -4.1799   474.8100    34.5385 </r>
       <r>    -4.1368    68.9734    37.5136 </r>
       <r>    -4.0936    11.2841    38.0003 </r>
       <r>    -4.0505   160.3489    44.9167 </r>
       <r>    -4.0074    25.1158    46.0000 </r>
       <r>    -3.9642     0.0000    46.0000 </r>
       <r>    -3.9211     0.0000    46.0000 </r>
       <r>    -3.8780     0.0000    46.0000 </r>
       <r>    -3.8348     0.0000    46.0000 </r>
       <r>    -3.7917     0.0000    46.0000 </r>
       <r>    -3.7486     0.0000    46.0000 </r>
       <r>    -3.7054     0.0000    46.0000 </r>
       <r>    -3.6623     0.0000    46.0000 </r>
       <r>    -3.6192     0.0000    46.0000 </r>
       <r>    -3.5760     0.0000    46.0000 </r>
       <r>    -3.5329     0.0175    46.0008 </r>
       <r>    -3.4898   132.9983    51.7374 </r>
       <r>    -3.4466   233.5683    61.8120 </r>
       <r>    -3.4035     6.1434    62.0770 </r>
       <r>    -3.3604    44.5820    64.0000 </r>
       <r>    -3.3172     0.0003    64.0000 </r>
       <r>    -3.2741     0.0000    64.0000 </r>
       <r>    -3.2310     0.0000    64.0000 </r>
       <r>    -3.1878     0.0000    64.0000 </r>
       <r>    -3.1447     0.0000    64.0000 </r>
       <r>    -3.1016     0.0000    64.0000 </r>
       <r>    -3.0584     0.0000    64.0000 </r>
       <r>    -3.0153     0.0000    64.0000 </r>
       <r>    -2.9722     0.0000    64.0000 </r>
       <r>    -2.9290     0.0000    64.0000 </r>
       <r>    -2.8859     0.0000    64.0000 </r>
       <r>    -2.8428     0.0000    64.0000 </r>
       <r>    -2.7996     0.0000    64.0000 </r>
       <r>    -2.7565     0.0000    64.0000 </r>
       <r>    -2.7134     0.0000    64.0000 </r>
       <r>    -2.6702     0.0000    64.0000 </r>
       <r>    -2.6271     0.0000    64.0000 </r>
       <r>    -2.5840     0.0000    64.0000 </r>
       <r>    -2.5408     0.0000    64.0000 </r>
       <r>    -2.4977     0.0000    64.0000 </r>
       <r>    -2.4546     0.0000    64.0000 </r>
       <r>    -2.4114     0.0000    64.0000 </r>
       <r>    -2.3683     0.0000    64.0000 </r>
       <r>    -2.3252     0.0000    64.0000 </r>
       <r>    -2.2820     0.0000    64.0000 </r>
       <r>    -2.2389     0.0000    64.0000 </r>
       <r>    -2.1958     0.0000    64.0000 </r>
       <r>    -2.1526     0.0000    64.0000 </r>
       <r>    -2.1095     0.0000    64.0000 </r>
       <r>    -2.0664     0.0000    64.0000 </r>
       <r>    -2.0232     0.0000    64.0000 </r>
       <r>    -1.9801     0.0000    64.0000 </r>
       <r>    -1.9370     0.0000    64.0000 </r>
       <r>    -1.8938     0.0000    64.0000 </r>
       <r>    -1.8507     0.0000    64.0000 </r>
       <r>    -1.8076     0.0000    64.0000 </r>
       <r>    -1.7644     0.0000    64.0000 </r>
       <r>    -1.7213     0.0000    64.0000 </r>
       <r>    -1.6782     0.0000    64.0000 </r>
       <r>    -1.6350     0.0000    64.0000 </r>
       <r>    -1.5919     0.0000    64.0000 </r>
       <r>    -1.5488     0.0000    64.0000 </r>
       <r>    -1.5056     0.0000    64.0000 </r>
       <r>    -1.4625     0.0000    64.0000 </r>
       <r>    -1.4194     0.0000    64.0000 </r>
       <r>    -1.3762     0.0000    64.0000 </r>
       <r>    -1.3331     0.0000    64.0000 </r>
       <r>    -1.2900     0.0000    64.0000 </r>
       <r>    -1.2468     0.0000    64.0000 </r>
       <r>    -1.2037     2.5869    64.1116 </r>
       <r>    -1.1606    95.1278    68.2148 </r>
       <r>    -1.1174    87.7564    72.0000 </r>
       <r>    -1.0743     0.0000    72.0000 </r>
       <r>    -1.0312     0.0000    72.0000 </r>
       <r>    -0.9880     0.0000    72.0000 </r>
       <r>    -0.9449     0.0000    72.0000 </r>
       <r>    -0.9018     0.0000    72.0000 </r>
       <r>    -0.8586     2.5966    72.1120 </r>
       <r>    -0.8155   136.5026    77.9998 </r>
       <r>    -0.7724     0.0041    78.0000 </r>
       <r>    -0.7292     0.0000    78.0000 </r>
       <r>    -0.6861     0.0000    78.0000 </r>
       <r>    -0.6430     0.0000    78.0000 </r>
       <r>    -0.5998     0.0000    78.0000 </r>
       <r>    -0.5567     0.0000    78.0000 </r>
       <r>    -0.5136     0.0000    78.0000 </r>
       <r>    -0.4704     0.0000    78.0000 </r>
       <r>    -0.4273     0.0000    78.0000 </r>
       <r>    -0.3842     0.0000    78.0000 </r>
       <r>    -0.3410     0.0000    78.0000 </r>
       <r>    -0.2979     0.0000    78.0000 </r>
       <r>    -0.2548     0.0000    78.0000 </r>
       <r>    -0.2116     0.0000    78.0000 </r>
       <r>    -0.1685     0.0000    78.0000 </r>
       <r>    -0.1254     0.0000    78.0000 </r>
       <r>    -0.0822     0.0000    78.0000 </r>
       <r>    -0.0391   148.2642    84.3951 </r>
       <r>     0.0040   420.4652   102.5312 </r>
       <r>     0.0472   381.7705   118.9983 </r>
       <r>     0.0903   162.2788   125.9980 </r>
       <r>     0.1334     0.0474   126.0000 </r>
       <r>     0.1766     0.0000   126.0000 </r>
       <r>     0.2197     0.0000   126.0000 </r>
       <r>     0.2629     0.0000   126.0000 </r>
       <r>     0.3060     0.0000   126.0000 </r>
       <r>     0.3491     0.0000   126.0000 </r>
       <r>     0.3923     0.0000   126.0000 </r>
       <r>     0.4354     0.0000   126.0000 </r>
       <r>     0.4785     0.0000   126.0000 </r>
       <r>     0.5217     0.0000   126.0000 </r>
       <r>     0.5648     0.0000   126.0000 </r>
       <r>     0.6079     0.0000   126.0000 </r>
       <r>     0.6511     0.0000   126.0000 </r>
       <r>     0.6942     0.0000   126.0000 </r>
       <r>     0.7373     0.0132   126.0006 </r>
       <r>     0.7805   181.3129   133.8212 </r>
       <r>     0.8236   374.8188   149.9884 </r>
       <r>     0.8667     0.2682   150.0000 </r>
       <r>     0.9099     4.9961   150.2155 </r>
       <r>     0.9530   202.5143   158.9506 </r>
       <r>     0.9961    70.6961   162.0000 </r>
       <r>     1.0393     0.0000   162.0000 </r>
       <r>     1.0824     0.0000   162.0000 </r>
       <r>     1.1255     0.0000   162.0000 </r>
       <r>     1.1687    55.0243   164.3734 </r>
       <r>     1.2118   178.4839   172.0720 </r>
       <r>     1.2549    44.6979   174.0000 </r>
       <r>     1.2981     0.0004   174.0000 </r>
       <r>     1.3412     0.0000   174.0000 </r>
       <r>     1.3843     0.0000   174.0000 </r>
       <r>     1.4275     0.0000   174.0000 </r>
       <r>     1.4706     0.0000   174.0000 </r>
       <r>     1.5137     0.0000   174.0000 </r>
       <r>     1.5569     0.0000   174.0000 </r>
       <r>     1.6000     0.0000   174.0000 </r>
       <r>     1.6431    35.0581   175.5122 </r>
       <r>     1.6863   243.1483   186.0000 </r>
       <r>     1.7294     0.0002   186.0000 </r>
       <r>     1.7725     0.0000   186.0000 </r>
       <r>     1.8157     0.0000   186.0000 </r>
       <r>     1.8588     0.0000   186.0000 </r>
       <r>     1.9019     0.0000   186.0000 </r>
       <r>     1.9451     0.0000   186.0000 </r>
       <r>     1.9882     0.0000   186.0000 </r>
       <r>     2.0313     0.0000   186.0000 </r>
       <r>     2.0745     0.0000   186.0000 </r>
       <r>     2.1176     0.0000   186.0000 </r>
       <r>     2.1607     0.0000   186.0000 </r>
       <r>     2.2039     0.0000   186.0000 </r>
       <r>     2.2470     0.0000   186.0000 </r>
       <r>     2.2901     0.0001   186.0000 </r>
       <r>     2.3333   296.0882   198.7713 </r>
       <r>     2.3764   157.5562   205.5672 </r>
       <r>     2.4195   102.7685   210.0000 </r>
       <r>     2.4627     0.0000   210.0000 </r>
       <r>     2.5058     0.0000   210.0000 </r>
       <r>     2.5489     0.0000   210.0000 </r>
       <r>     2.5921     0.0000   210.0000 </r>
       <r>     2.6352     0.0000   210.0000 </r>
       <r>     2.6783     0.0000   210.0000 </r>
       <r>     2.7215     0.0000   210.0000 </r>
       <r>     2.7646    52.3101   212.2563 </r>
       <r>     2.8077   363.8314   227.9496 </r>
       <r>     2.8509   140.8037   234.0230 </r>
       <r>     2.8940   154.4626   240.6855 </r>
       <r>     2.9371    76.8441   244.0000 </r>
       <r>     2.9803    81.7408   247.5258 </r>
       <r>     3.0234    57.3624   250.0000 </r>
       <r>     3.0665     0.0000   250.0000 </r>
       <r>     3.1097     0.0000   250.0000 </r>
       <r>     3.1528     0.0000   250.0000 </r>
       <r>     3.1959     0.0000   250.0000 </r>
       <r>     3.2391     0.0000   250.0000 </r>
       <r>     3.2822     0.0000   250.0000 </r>
       <r>     3.3253     0.0000   250.0000 </r>
       <r>     3.3685     0.0000   250.0000 </r>
       <r>     3.4116     0.0000   250.0000 </r>
       <r>     3.4547     0.0000   250.0000 </r>
       <r>     3.4979     0.0000   250.0000 </r>
       <r>     3.5410     0.0000   250.0000 </r>
       <r>     3.5841     0.0000   250.0000 </r>
       <r>     3.6273   111.8747   254.8255 </r>
       <r>     3.6704    27.2286   256.0000 </r>
       <r>     3.7135     0.0000   256.0000 </r>
       <r>     3.7567    36.3152   257.5664 </r>
       <r>     3.7998    87.5940   261.3446 </r>
       <r>     3.8429    15.1941   262.0000 </r>
       <r>     3.8861     0.0000   262.0000 </r>
       <r>     3.9292     0.0815   262.0035 </r>
       <r>     3.9723   138.7218   267.9871 </r>
       <r>     4.0155     0.2999   268.0000 </r>
       <r>     4.0586     0.0000   268.0000 </r>
       <r>     4.1017     0.0000   268.0000 </r>
       <r>     4.1449     0.0000   268.0000 </r>
       <r>     4.1880     0.0000   268.0000 </r>
       <r>     4.2311     0.0000   268.0000 </r>
       <r>     4.2743     0.0000   268.0000 </r>
       <r>     4.3174     0.0000   268.0000 </r>
       <r>     4.3605     0.0000   268.0000 </r>
       <r>     4.4037     0.0000   268.0000 </r>
       <r>     4.4468     0.0000   268.0000 </r>
       <r>     4.4899     0.0000   268.0000 </r>
       <r>     4.5331     0.0000   268.0000 </r>
       <r>     4.5762     0.0000   268.0000 </r>
       <r>     4.6193     0.0000   268.0000 </r>
       <r>     4.6625     0.0000   268.0000 </r>
       <r>     4.7056     0.1019   268.0044 </r>
       <r>     4.7487   104.3522   272.5055 </r>
       <r>     4.7919   174.2508   280.0215 </r>
       <r>     4.8350   146.0849   286.3226 </r>
       <r>     4.8781    38.8876   288.0000 </r>
       <r>     4.9213     0.0000   288.0000 </r>
       <r>     4.9644     0.0000   288.0000 </r>
       <r>     5.0075     0.0000   288.0000 </r>
       <r>     5.0507     0.0000   288.0000 </r>
       <r>     5.0938     0.0000   288.0000 </r>
       <r>     5.1369     0.0000   288.0000 </r>
       <r>     5.1801     0.0000   288.0000 </r>
       <r>     5.2232     0.0000   288.0000 </r>
       <r>     5.2663     0.0000   288.0000 </r>
       <r>     5.3095    73.1865   291.1568 </r>
       <r>     5.3526   350.0552   306.2559 </r>
       <r>     5.3957   318.5005   319.9939 </r>
       <r>     5.4389    70.6942   323.0432 </r>
       <r>     5.4820    22.1831   324.0000 </r>
       <r>     5.5251    17.3593   324.7488 </r>
       <r>     5.5683    29.0085   326.0000 </r>
       <r>     5.6114     0.0000   326.0000 </r>
       <r>     5.6545     0.0000   326.0000 </r>
       <r>     5.6977     0.0000   326.0000 </r>
       <r>     5.7408     0.0000   326.0000 </r>
       <r>     5.7839     0.0000   326.0000 </r>
       <r>     5.8271     0.0000   326.0000 </r>
       <r>     5.8702     0.0000   326.0000 </r>
       <r>     5.9133     0.0000   326.0000 </r>
       <r>     5.9565     0.0000   326.0000 </r>
       <r>     5.9996     0.0000   326.0000 </r>
       <r>     6.0427     0.0000   326.0000 </r>
       <r>     6.0859   122.4065   331.2798 </r>
       <r>     6.1290   156.9728   338.0506 </r>
       <r>     6.1721   230.5685   347.9958 </r>
       <r>     6.2153     0.0978   348.0000 </r>
       <r>     6.2584   113.1392   352.8801 </r>
       <r>     6.3015    72.3292   355.9999 </r>
       <r>     6.3447     0.0024   356.0000 </r>
       <r>     6.3878     0.0000   356.0000 </r>
       <r>     6.4309     0.0000   356.0000 </r>
       <r>     6.4741     0.0000   356.0000 </r>
       <r>     6.5172     0.0000   356.0000 </r>
       <r>     6.5603     0.0000   356.0000 </r>
       <r>     6.6035     0.0000   356.0000 </r>
       <r>     6.6466     0.0000   356.0000 </r>
       <r>     6.6897     0.0000   356.0000 </r>
       <r>     6.7329     0.0000   356.0000 </r>
       <r>     6.7760     0.0000   356.0000 </r>
       <r>     6.8191     0.0000   356.0000 </r>
       <r>     6.8623     0.0000   356.0000 </r>
      </set>
     </set>
    </array>
   </total>
  </dos>
 </calculation>
 <structure name="finalpos" >
  <crystal>
   <varray name="basis" >
    <v>      12.74739769       0.00000000       0.00000000 </v>
    <v>       0.00000000      12.74739769       0.00000000 </v>
    <v>       0.00000000       0.00000000      12.74739769 </v>
   </varray>
   <i name="volume">   2071.40301882 </i>
   <varray name="rec_basis" >
    <v>       0.07844738       0.00000000       0.00000000 </v>
    <v>       0.00000000       0.07844738       0.00000000 </v>
    <v>       0.00000000       0.00000000       0.07844738 </v>
   </varray>
  </crystal>
  <varray name="positions" >
   <v>       0.00000000       0.00000000       0.00000000 </v>
   <v>       0.50000000       0.00000000       0.00000000 </v>
   <v>       0.00000000       0.50000000       0.00000000 </v>
   <v>       0.50000000       0.50000000       0.00000000 </v>
   <v>       0.00000000       0.00000000       0.50000000 </v>
   <v>       0.50000000       0.00000000       0.50000000 </v>
   <v>       0.00000000       0.50000000       0.50000000 </v>
   <v>       0.50000000       0.50000000       0.50000000 </v>
   <v>       0.25140293       0.25140293       0.00000000 </v>
   <v>       0.74859707       0.25140293       0.00000000 </v>
   <v>       0.25140293       0.74859707       0.00000000 </v>
   <v>       0.74859707       0.74859707       0.00000000 </v>
   <v>       0.25012668       0.25012668       0.50000000 </v>
   <v>       0.74987332       0.25012668       0.50000000 </v>
   <v>       0.25012668       0.74987332       0.50000000 </v>
   <v>       0.74987332       0.74987332       0.50000000 </v>
   <v>       0.25140293       0.00000000       0.25140293 </v>
   <v>       0.74859707       0.00000000       0.25140293 </v>
   <v>       0.25012668       0.50000000       0.25012668 </v>
   <v>       0.74987332       0.50000000       0.25012668 </v>
   <v>       0.25140293       0.00000000       0.74859707 </v>
   <v>       0.74859707       0.00000000       0.74859707 </v>
   <v>       0.25012668       0.50000000       0.74987332 </v>
   <v>       0.74987332       0.50000000       0.74987332 </v>
   <v>       0.00000000       0.25140293       0.25140293 </v>
   <v>       0.50000000       0.25012668       0.25012668 </v>
   <v>       0.00000000       0.74859707       0.25140293 </v>
   <v>       0.50000000       0.74987332       0.25012668 </v>
   <v>       0.00000000       0.25140293       0.74859707 </v>
   <v>       0.50000000       0.25012668       0.74987332 </v>
   <v>       0.00000000       0.74859707       0.74859707 </v>
   <v>       0.50000000       0.74987332       0.74987332 </v>
   <v>       0.12960836       0.12960836       0.12960836 </v>
   <v>       0.62421357       0.12428756       0.12507203 </v>
   <v>       0.12507203       0.62421357       0.12507203 </v>
   <v>       0.62455273       0.62455273       0.12469540 </v>
   <v>       0.12507203       0.12507203       0.62421357 </v>
   <v>       0.62455273       0.12469540       0.62455273 </v>
   <v>       0.12469540       0.62455273       0.62455273 </v>
   <v>       0.62508239       0.62508239       0.62508239 </v>
   <v>       0.37578643       0.12507203       0.12507203 </v>
   <v>       0.87039164       0.12960836       0.12960836 </v>
   <v>       0.37544727       0.62455273       0.12469540 </v>
   <v>       0.87492797       0.62421357       0.12507203 </v>
   <v>       0.37544727       0.12469540       0.62455273 </v>
   <v>       0.87492797       0.12507203       0.62421357 </v>
   <v>       0.37491761       0.62508239       0.62508239 </v>
   <v>       0.87530460       0.62455273       0.62455273 </v>
   <v>       0.12507203       0.37578643       0.12507203 </v>
   <v>       0.62455273       0.37544727       0.12469540 </v>
   <v>       0.12960836       0.87039164       0.12960836 </v>
   <v>       0.62421357       0.87492797       0.12507203 </v>
   <v>       0.12469540       0.37544727       0.62455273 </v>
   <v>       0.62508239       0.37491761       0.62508239 </v>
   <v>       0.12507203       0.87492797       0.62421357 </v>
   <v>       0.62455273       0.87530460       0.62455273 </v>
   <v>       0.37544727       0.37544727       0.12469540 </v>
   <v>       0.87492797       0.37578643       0.12507203 </v>
   <v>       0.37578643       0.87492797       0.12507203 </v>
   <v>       0.87039164       0.87039164       0.12960836 </v>
   <v>       0.37491761       0.37491761       0.62508239 </v>
   <v>       0.87530460       0.37544727       0.62455273 </v>
   <v>       0.37544727       0.87530460       0.62455273 </v>
   <v>       0.87492797       0.87492797       0.62421357 </v>
   <v>       0.12507203       0.12507203       0.37578643 </v>
   <v>       0.62455273       0.12469540       0.37544727 </v>
   <v>       0.12469540       0.62455273       0.37544727 </v>
   <v>       0.62508239       0.62508239       0.37491761 </v>
   <v>       0.12960836       0.12960836       0.87039164 </v>
   <v>       0.62421357       0.12507203       0.87492797 </v>
   <v>       0.12507203       0.62421357       0.87492797 </v>
   <v>       0.62455273       0.62455273       0.87530460 </v>
   <v>       0.37544727       0.12469540       0.37544727 </v>
   <v>       0.87492797       0.12507203       0.37578643 </v>
   <v>       0.37491761       0.62508239       0.37491761 </v>
   <v>       0.87530460       0.62455273       0.37544727 </v>
   <v>       0.37578643       0.12507203       0.87492797 </v>
   <v>       0.87039164       0.12960836       0.87039164 </v>
   <v>       0.37544727       0.62455273       0.87530460 </v>
   <v>       0.87492797       0.62421357       0.87492797 </v>
   <v>       0.12469540       0.37544727       0.37544727 </v>
   <v>       0.62508239       0.37491761       0.37491761 </v>
   <v>       0.12507203       0.87492797       0.37578643 </v>
   <v>       0.62455273       0.87530460       0.37544727 </v>
   <v>       0.12507203       0.37578643       0.87492797 </v>
   <v>       0.62455273       0.37544727       0.87530460 </v>
   <v>       0.12960836       0.87039164       0.87039164 </v>
   <v>       0.62421357       0.87492797       0.87492797 </v>
   <v>       0.37491761       0.37491761       0.37491761 </v>
   <v>       0.87530460       0.37544727       0.37544727 </v>
   <v>       0.37544727       0.87530460       0.37544727 </v>
   <v>       0.87492797       0.87492797       0.37578643 </v>
   <v>       0.37544727       0.37544727       0.87530460 </v>
   <v>       0.87492797       0.37578643       0.87492797 </v>
   <v>       0.37578643       0.87492797       0.87492797 </v>
   <v>       0.87039164       0.87039164       0.87039164 </v>
  </varray>
 </structure>
</modeling>
