<?xml version="1.0" encoding="ISO-8859-1"?>
<modeling>
 <generator>
  <i name="program" type="string">vasp </i>
  <i name="version" type="string">5.4.4.18Apr17-6-g9f103f2a35  </i>
  <i name="subversion" type="string">(build Apr 28 2017 11:12:57) complex            parallel </i>
  <i name="platform" type="string">LinuxIFC </i>
  <i name="date" type="string">2018 06 27 </i>
  <i name="time" type="string">23:36:44 </i>
 </generator>
 <incar>
  <i type="string" name="PREC">accurate</i>
  <i type="int" name="IALGO">    38</i>
  <i type="int" name="IBRION">    -1</i>
  <i name="EDIFF">      0.00000001</i>
  <i type="int" name="ISYM">     0</i>
  <i name="ENCUT">    270.00000000</i>
  <i type="logical" name="LREAL"> F  </i>
  <i type="int" name="ISMEAR">     0</i>
  <i name="SIGMA">      0.01000000</i>
  <i type="logical" name="LWAVE"> F  </i>
  <i type="logical" name="LCHARG"> F  </i>
  <v type="int" name="KPOINT_BSE">    -1     0     0     0</v>
 </incar>
 <structure name="primitive_cell" >
  <crystal>
   <varray name="basis" >
    <v>      12.74739769       0.00000000       0.00000000 </v>
    <v>       0.00000000      12.74739769       0.00000000 </v>
    <v>       0.00000000       0.00000000      12.74739769 </v>
   </varray>
   <i name="volume">   2071.40301882 </i>
   <varray name="rec_basis" >
    <v>       0.07844738       0.00000000       0.00000000 </v>
    <v>       0.00000000       0.07844738       0.00000000 </v>
    <v>       0.00000000       0.00000000       0.07844738 </v>
   </varray>
  </crystal>
  <varray name="positions" >
   <v>       0.00000000       0.00000000       0.00000000 </v>
   <v>       0.12960836       0.12960836       0.12960836 </v>
   <v>      -0.12960836       0.12960836       0.12960836 </v>
   <v>       0.12960836      -0.12960836       0.12960836 </v>
   <v>      -0.12960836      -0.12960836       0.12960836 </v>
   <v>       0.12960836       0.12960836      -0.12960836 </v>
   <v>      -0.12960836       0.12960836      -0.12960836 </v>
   <v>       0.12960836      -0.12960836      -0.12960836 </v>
   <v>      -0.12960836      -0.12960836      -0.12960836 </v>
   <v>       0.25140293       0.25140293       0.00000000 </v>
   <v>      -0.25140293       0.25140293       0.00000000 </v>
   <v>       0.25140293      -0.25140293       0.00000000 </v>
   <v>      -0.25140293      -0.25140293       0.00000000 </v>
   <v>       0.25140293       0.00000000       0.25140293 </v>
   <v>      -0.25140293       0.00000000       0.25140293 </v>
   <v>       0.25140293       0.00000000      -0.25140293 </v>
   <v>      -0.25140293       0.00000000      -0.25140293 </v>
   <v>       0.00000000       0.25140293       0.25140293 </v>
   <v>       0.00000000      -0.25140293       0.25140293 </v>
   <v>       0.00000000       0.25140293      -0.25140293 </v>
   <v>       0.00000000      -0.25140293      -0.25140293 </v>
   <v>      -0.37578643       0.12507203       0.12507203 </v>
   <v>       0.12507203      -0.37578643       0.12507203 </v>
   <v>       0.12507203       0.12507203      -0.37578643 </v>
   <v>       0.37578643       0.12507203       0.12507203 </v>
   <v>      -0.12507203      -0.37578643       0.12507203 </v>
   <v>      -0.12507203       0.12507203      -0.37578643 </v>
   <v>       0.12507203       0.37578643       0.12507203 </v>
   <v>      -0.37578643      -0.12507203       0.12507203 </v>
   <v>       0.12507203      -0.12507203      -0.37578643 </v>
   <v>      -0.12507203       0.37578643       0.12507203 </v>
   <v>       0.37578643      -0.12507203       0.12507203 </v>
   <v>      -0.12507203      -0.12507203      -0.37578643 </v>
   <v>       0.12507203       0.12507203       0.37578643 </v>
   <v>      -0.37578643       0.12507203      -0.12507203 </v>
   <v>       0.12507203      -0.37578643      -0.12507203 </v>
   <v>      -0.12507203       0.12507203       0.37578643 </v>
   <v>       0.37578643       0.12507203      -0.12507203 </v>
   <v>      -0.12507203      -0.37578643      -0.12507203 </v>
   <v>       0.12507203      -0.12507203       0.37578643 </v>
   <v>       0.12507203       0.37578643      -0.12507203 </v>
   <v>      -0.37578643      -0.12507203      -0.12507203 </v>
   <v>      -0.12507203      -0.12507203       0.37578643 </v>
   <v>      -0.12507203       0.37578643      -0.12507203 </v>
   <v>       0.37578643      -0.12507203      -0.12507203 </v>
   <v>      -0.50000000       0.00000000       0.00000000 </v>
   <v>       0.00000000      -0.50000000       0.00000000 </v>
   <v>       0.00000000       0.00000000      -0.50000000 </v>
   <v>      -0.37544727       0.12469540      -0.37544727 </v>
   <v>       0.12469540      -0.37544727      -0.37544727 </v>
   <v>       0.37544727      -0.37544727       0.12469540 </v>
   <v>       0.37544727       0.12469540      -0.37544727 </v>
   <v>      -0.12469540      -0.37544727      -0.37544727 </v>
   <v>      -0.37544727       0.37544727       0.12469540 </v>
   <v>       0.12469540       0.37544727      -0.37544727 </v>
   <v>      -0.37544727      -0.12469540      -0.37544727 </v>
   <v>       0.37544727       0.37544727       0.12469540 </v>
   <v>      -0.12469540       0.37544727      -0.37544727 </v>
   <v>       0.37544727      -0.12469540      -0.37544727 </v>
   <v>      -0.37544727       0.12469540       0.37544727 </v>
   <v>       0.12469540      -0.37544727       0.37544727 </v>
   <v>      -0.37544727      -0.37544727      -0.12469540 </v>
   <v>       0.37544727       0.12469540       0.37544727 </v>
   <v>      -0.12469540      -0.37544727       0.37544727 </v>
   <v>       0.37544727      -0.37544727      -0.12469540 </v>
   <v>       0.12469540       0.37544727       0.37544727 </v>
   <v>      -0.37544727      -0.12469540       0.37544727 </v>
   <v>      -0.37544727       0.37544727      -0.12469540 </v>
   <v>      -0.12469540       0.37544727       0.37544727 </v>
   <v>       0.37544727      -0.12469540       0.37544727 </v>
   <v>       0.37544727       0.37544727      -0.12469540 </v>
   <v>      -0.37544727      -0.37544727       0.12547987 </v>
   <v>       0.25012668       0.25012668      -0.50000000 </v>
   <v>      -0.25012668       0.25012668      -0.50000000 </v>
   <v>       0.25012668      -0.25012668      -0.50000000 </v>
   <v>      -0.25012668      -0.25012668      -0.50000000 </v>
   <v>       0.25012668      -0.50000000       0.25012668 </v>
   <v>      -0.25012668      -0.50000000       0.25012668 </v>
   <v>       0.25012668      -0.50000000      -0.25012668 </v>
   <v>      -0.25012668      -0.50000000      -0.25012668 </v>
   <v>      -0.50000000       0.25012668       0.25012668 </v>
   <v>      -0.50000000      -0.25012668       0.25012668 </v>
   <v>      -0.50000000       0.25012668      -0.25012668 </v>
   <v>      -0.50000000      -0.25012668      -0.25012668 </v>
   <v>      -0.37491761      -0.37491761      -0.37491761 </v>
   <v>       0.37491761      -0.37491761      -0.37491761 </v>
   <v>      -0.37491761       0.37491761      -0.37491761 </v>
   <v>       0.37491761       0.37491761      -0.37491761 </v>
   <v>      -0.37491761      -0.37491761       0.37491761 </v>
   <v>       0.37491761      -0.37491761       0.37491761 </v>
   <v>      -0.37491761       0.37491761       0.37491761 </v>
   <v>       0.37491761       0.37491761       0.37491761 </v>
   <v>      -0.50000000      -0.50000000       0.00000000 </v>
   <v>      -0.50000000       0.00000000      -0.50000000 </v>
   <v>       0.00000000      -0.50000000      -0.50000000 </v>
   <v>      -0.50000000      -0.50000000      -0.50000000 </v>
  </varray>
 </structure>
 <varray name="primitive_index" >
  <v type="int" >        1 </v>
  <v type="int" >       33 </v>
  <v type="int" >       42 </v>
  <v type="int" >       51 </v>
  <v type="int" >       60 </v>
  <v type="int" >       69 </v>
  <v type="int" >       78 </v>
  <v type="int" >       87 </v>
  <v type="int" >       96 </v>
  <v type="int" >        9 </v>
  <v type="int" >       10 </v>
  <v type="int" >       11 </v>
  <v type="int" >       12 </v>
  <v type="int" >       17 </v>
  <v type="int" >       18 </v>
  <v type="int" >       21 </v>
  <v type="int" >       22 </v>
  <v type="int" >       25 </v>
  <v type="int" >       27 </v>
  <v type="int" >       29 </v>
  <v type="int" >       31 </v>
  <v type="int" >       34 </v>
  <v type="int" >       35 </v>
  <v type="int" >       37 </v>
  <v type="int" >       41 </v>
  <v type="int" >       44 </v>
  <v type="int" >       46 </v>
  <v type="int" >       49 </v>
  <v type="int" >       52 </v>
  <v type="int" >       55 </v>
  <v type="int" >       58 </v>
  <v type="int" >       59 </v>
  <v type="int" >       64 </v>
  <v type="int" >       65 </v>
  <v type="int" >       70 </v>
  <v type="int" >       71 </v>
  <v type="int" >       74 </v>
  <v type="int" >       77 </v>
  <v type="int" >       80 </v>
  <v type="int" >       83 </v>
  <v type="int" >       85 </v>
  <v type="int" >       88 </v>
  <v type="int" >       92 </v>
  <v type="int" >       94 </v>
  <v type="int" >       95 </v>
  <v type="int" >        2 </v>
  <v type="int" >        3 </v>
  <v type="int" >        5 </v>
  <v type="int" >       38 </v>
  <v type="int" >       39 </v>
  <v type="int" >       43 </v>
  <v type="int" >       45 </v>
  <v type="int" >       48 </v>
  <v type="int" >       50 </v>
  <v type="int" >       53 </v>
  <v type="int" >       56 </v>
  <v type="int" >       57 </v>
  <v type="int" >       62 </v>
  <v type="int" >       63 </v>
  <v type="int" >       66 </v>
  <v type="int" >       67 </v>
  <v type="int" >       72 </v>
  <v type="int" >       73 </v>
  <v type="int" >       76 </v>
  <v type="int" >       79 </v>
  <v type="int" >       81 </v>
  <v type="int" >       84 </v>
  <v type="int" >       86 </v>
  <v type="int" >       90 </v>
  <v type="int" >       91 </v>
  <v type="int" >       93 </v>
  <v type="int" >       36 </v>
  <v type="int" >       13 </v>
  <v type="int" >       14 </v>
  <v type="int" >       15 </v>
  <v type="int" >       16 </v>
  <v type="int" >       19 </v>
  <v type="int" >       20 </v>
  <v type="int" >       23 </v>
  <v type="int" >       24 </v>
  <v type="int" >       26 </v>
  <v type="int" >       28 </v>
  <v type="int" >       30 </v>
  <v type="int" >       32 </v>
  <v type="int" >       40 </v>
  <v type="int" >       47 </v>
  <v type="int" >       54 </v>
  <v type="int" >       61 </v>
  <v type="int" >       68 </v>
  <v type="int" >       75 </v>
  <v type="int" >       82 </v>
  <v type="int" >       89 </v>
  <v type="int" >        4 </v>
  <v type="int" >        6 </v>
  <v type="int" >        7 </v>
  <v type="int" >        8 </v>
 </varray>
 <kpoints>
  <generation param="Gamma">
   <v type="int" name="divisions">       1        1        1 </v>
   <v name="usershift">      0.00000000       0.00000000       0.00000000 </v>
   <v name="genvec1">      1.00000000       0.00000000       0.00000000 </v>
   <v name="genvec2">      0.00000000       1.00000000       0.00000000 </v>
   <v name="genvec3">      0.00000000       0.00000000       1.00000000 </v>
   <v name="shift">      0.00000000       0.00000000       0.00000000 </v>
  </generation>
  <varray name="kpointlist" >
   <v>       0.00000000       0.00000000       0.00000000 </v>
  </varray>
  <varray name="weights" >
   <v>       1.00000000 </v>
  </varray>
 </kpoints>
 <parameters>
  <separator name="general" >
   <i type="string" name="SYSTEM">unknown system</i>
   <i type="logical" name="LCOMPAT"> F  </i>
  </separator>
  <separator name="electronic" >
   <i type="string" name="PREC">accura</i>
   <i name="ENMAX">    270.00000000</i>
   <i name="ENAUG">    454.73400000</i>
   <i name="EDIFF">      0.00000001</i>
   <i type="int" name="IALGO">    38</i>
   <i type="int" name="IWAVPR">    10</i>
   <i type="int" name="NBANDS">   178</i>
   <i name="NELECT">    256.00000000</i>
   <i type="int" name="TURBO">     0</i>
   <i type="int" name="IRESTART">     0</i>
   <i type="int" name="NREBOOT">     0</i>
   <i type="int" name="NMIN">     0</i>
   <i name="EREF">      0.00000000</i>
   <separator name="electronic smearing" >
    <i type="int" name="ISMEAR">     0</i>
    <i name="SIGMA">      0.01000000</i>
    <i name="KSPACING">      0.50000000</i>
    <i type="logical" name="KGAMMA"> T  </i>
   </separator>
   <separator name="electronic projectors" >
    <i type="logical" name="LREAL"> F  </i>
    <v name="ROPT">      0.00000000      0.00000000      0.00000000</v>
    <i type="int" name="LMAXPAW">  -100</i>
    <i type="int" name="LMAXMIX">     2</i>
    <i type="logical" name="NLSPLINE"> F  </i>
   </separator>
   <separator name="electronic startup" >
    <i type="int" name="ISTART">     0</i>
    <i type="int" name="ICHARG">     2</i>
    <i type="int" name="INIWAV">     1</i>
   </separator>
   <separator name="electronic spin" >
    <i type="int" name="ISPIN">     1</i>
    <i type="logical" name="LNONCOLLINEAR"> F  </i>
    <v name="MAGMOM">      1.00000000      1.00000000      1.00000000      1.00000000      1.00000000      1.00000000      1.00000000      1.00000000      1.00000000      1.00000000      1.00000000      1.00000000      1.00000000      1.00000000      1.00000000      1.00000000      1.00000000      1.00000000      1.00000000      1.00000000
      1.00000000      1.00000000      1.00000000      1.00000000      1.00000000      1.00000000      1.00000000      1.00000000      1.00000000      1.00000000      1.00000000      1.00000000      1.00000000      1.00000000      1.00000000      1.00000000      1.00000000      1.00000000      1.00000000      1.00000000
      1.00000000      1.00000000      1.00000000      1.00000000      1.00000000      1.00000000      1.00000000      1.00000000      1.00000000      1.00000000      1.00000000      1.00000000      1.00000000      1.00000000      1.00000000      1.00000000      1.00000000      1.00000000      1.00000000      1.00000000
      1.00000000      1.00000000      1.00000000      1.00000000      1.00000000      1.00000000      1.00000000      1.00000000      1.00000000      1.00000000      1.00000000      1.00000000      1.00000000      1.00000000      1.00000000      1.00000000      1.00000000      1.00000000      1.00000000      1.00000000
      1.00000000      1.00000000      1.00000000      1.00000000      1.00000000      1.00000000      1.00000000      1.00000000      1.00000000      1.00000000      1.00000000      1.00000000      1.00000000      1.00000000      1.00000000      1.00000000</v>
    <i name="NUPDOWN">     -1.00000000</i>
    <i type="logical" name="LSORBIT"> F  </i>
    <v name="SAXIS">      0.00000000      0.00000000      1.00000000</v>
    <i type="logical" name="LSPIRAL"> F  </i>
    <v name="QSPIRAL">      0.00000000      0.00000000      0.00000000</v>
    <i type="logical" name="LZEROZ"> F  </i>
   </separator>
   <separator name="electronic exchange-correlation" >
    <i type="logical" name="LASPH"> F  </i>
    <i type="logical" name="LMETAGGA"> F  </i>
   </separator>
   <separator name="electronic convergence" >
    <i type="int" name="NELM">    60</i>
    <i type="int" name="NELMDL">    -5</i>
    <i type="int" name="NELMIN">     2</i>
    <i name="ENINI">    270.00000000</i>
    <separator name="electronic convergence detail" >
     <i type="logical" name="LDIAG"> T  </i>
     <i type="logical" name="LSUBROT"> F  </i>
     <i name="WEIMIN">      0.00000000</i>
     <i name="EBREAK">      0.00000000</i>
     <i name="DEPER">      0.30000000</i>
     <i type="int" name="NRMM">     4</i>
     <i name="TIME">      0.40000000</i>
    </separator>
   </separator>
   <separator name="electronic mixer" >
    <i name="AMIX">      0.40000000</i>
    <i name="BMIX">      1.00000000</i>
    <i name="AMIN">      0.10000000</i>
    <i name="AMIX_MAG">      1.60000000</i>
    <i name="BMIX_MAG">      1.00000000</i>
    <separator name="electronic mixer details" >
     <i type="int" name="IMIX">     4</i>
     <i type="logical" name="MIXFIRST"> F  </i>
     <i type="int" name="MAXMIX">   -45</i>
     <i name="WC">    100.00000000</i>
     <i type="int" name="INIMIX">     1</i>
     <i type="int" name="MIXPRE">     1</i>
     <i type="int" name="MREMOVE">     5</i>
    </separator>
   </separator>
   <separator name="electronic dipolcorrection" >
    <i type="logical" name="LDIPOL"> F  </i>
    <i type="logical" name="LMONO"> F  </i>
    <i type="int" name="IDIPOL">     0</i>
    <i name="EPSILON">      1.00000000</i>
    <v name="DIPOL">   -100.00000000   -100.00000000   -100.00000000</v>
    <i name="EFIELD">      0.00000000</i>
   </separator>
  </separator>
  <separator name="grids" >
   <i type="int" name="NGX">    70</i>
   <i type="int" name="NGY">    70</i>
   <i type="int" name="NGZ">    70</i>
   <i type="int" name="NGXF">   140</i>
   <i type="int" name="NGYF">   140</i>
   <i type="int" name="NGZF">   140</i>
   <i type="logical" name="ADDGRID"> F  </i>
  </separator>
  <separator name="ionic" >
   <i type="int" name="NSW">     0</i>
   <i type="int" name="IBRION">    -1</i>
   <i type="int" name="MDALGO">     0</i>
   <i type="int" name="ISIF">     2</i>
   <i name="PSTRESS">      0.00000000</i>
   <i name="EDIFFG">      0.00000010</i>
   <i type="int" name="NFREE">     0</i>
   <i name="POTIM">      0.50000000</i>
   <i name="SMASS">     -3.00000000</i>
   <i name="SCALEE">      1.00000000</i>
  </separator>
  <separator name="ionic md" >
   <i name="TEBEG">      0.00010000</i>
   <i name="TEEND">      0.00010000</i>
   <i type="int" name="NBLOCK">     1</i>
   <i type="int" name="KBLOCK">     1</i>
   <i type="int" name="NPACO">   256</i>
   <i name="APACO">     16.00000000</i>
  </separator>
  <separator name="symmetry" >
   <i type="int" name="ISYM">     0</i>
   <i name="SYMPREC">      0.00001000</i>
  </separator>
  <separator name="dos" >
   <i type="int" name="LORBIT">     0</i>
   <v name="RWIGS">     -1.00000000     -1.00000000     -1.00000000</v>
   <i type="int" name="NEDOS">   301</i>
   <i name="EMIN">     10.00000000</i>
   <i name="EMAX">    -10.00000000</i>
   <i name="EFERMI">      0.00000000</i>
  </separator>
  <separator name="writing" >
   <i type="int" name="NWRITE">     2</i>
   <i type="logical" name="LWAVE"> F  </i>
   <i type="logical" name="LDOWNSAMPLE"> F  </i>
   <i type="logical" name="LCHARG"> F  </i>
   <i type="logical" name="LPARD"> F  </i>
   <i type="logical" name="LVTOT"> F  </i>
   <i type="logical" name="LVHAR"> F  </i>
   <i type="logical" name="LELF"> F  </i>
   <i type="logical" name="LOPTICS"> F  </i>
   <v name="STM">      0.00000000      0.00000000      0.00000000      0.00000000      0.00000000      0.00000000      0.00000000</v>
  </separator>
  <separator name="performance" >
   <i type="int" name="NPAR">     2</i>
   <i type="int" name="NSIM">     4</i>
   <i type="int" name="NBLK">    -1</i>
   <i type="logical" name="LPLANE"> T  </i>
   <i type="logical" name="LSCALAPACK"> T  </i>
   <i type="logical" name="LSCAAWARE"> F  </i>
   <i type="logical" name="LSCALU"> F  </i>
   <i type="logical" name="LASYNC"> F  </i>
   <i type="logical" name="LORBITALREAL"> F  </i>
  </separator>
  <separator name="miscellaneous" >
   <i type="int" name="IDIOT">     3</i>
   <i type="int" name="ISPECIAL">     0</i>
   <i type="logical" name="LMUSIC"> F  </i>
   <v name="POMASS">    118.71000000     28.08500000     24.30500000</v>
   <v name="DARWINR">      0.00000000      0.00000000      0.00000000</v>
   <v name="DARWINV">      1.00000000      1.00000000      1.00000000</v>
   <i type="logical" name="LCORR"> T  </i>
  </separator>
  <i type="logical" name="GGA_COMPAT"> T  </i>
  <i type="logical" name="LBERRY"> F  </i>
  <i type="int" name="ICORELEVEL">     0</i>
  <i type="logical" name="LDAU"> F  </i>
  <i type="int" name="I_CONSTRAINED_M">     0</i>
  <separator name="electronic exchange-correlation" >
   <i type="string" name="GGA">--</i>
   <i type="int" name="VOSKOWN">     0</i>
   <i type="logical" name="LHFCALC"> F  </i>
   <i type="string" name="PRECFOCK"></i>
   <i type="logical" name="LSYMGRAD"> F  </i>
   <i type="logical" name="LHFONE"> F  </i>
   <i type="logical" name="LRHFCALC"> F  </i>
   <i type="logical" name="LTHOMAS"> F  </i>
   <i type="logical" name="LMODELHF"> F  </i>
   <i name="ENCUT4O">     -1.00000000</i>
   <i type="int" name="EXXOEP">     0</i>
   <i type="int" name="FOURORBIT">     0</i>
   <i name="AEXX">      0.00000000</i>
   <i name="HFALPHA">      0.00000000</i>
   <i name="MCALPHA">      0.00000000</i>
   <i name="ALDAX">      1.00000000</i>
   <i name="AGGAX">      1.00000000</i>
   <i name="ALDAC">      1.00000000</i>
   <i name="AGGAC">      1.00000000</i>
   <i type="int" name="NKREDX">     1</i>
   <i type="int" name="NKREDY">     1</i>
   <i type="int" name="NKREDZ">     1</i>
   <i type="logical" name="SHIFTRED"> F  </i>
   <i type="logical" name="ODDONLY"> F  </i>
   <i type="logical" name="EVENONLY"> F  </i>
   <i type="int" name="LMAXFOCK">     0</i>
   <i type="int" name="NMAXFOCKAE">     0</i>
   <i type="logical" name="LFOCKAEDFT"> F  </i>
   <i name="HFSCREEN">      0.00000000</i>
   <i name="HFSCREENC">      0.00000000</i>
   <i type="int" name="NBANDSGWLOW">     0</i>
  </separator>
  <separator name="vdW DFT" >
   <i type="logical" name="LUSE_VDW"> F  </i>
   <i name="Zab_VDW">     -0.84910000</i>
   <i name="PARAM1">      0.12340000</i>
   <i name="PARAM2">      1.00000000</i>
   <i name="PARAM3">      0.00000000</i>
  </separator>
  <separator name="model GW" >
   <i type="int" name="MODEL_GW">     0</i>
   <i name="MODEL_EPS0">     12.94626887</i>
   <i name="MODEL_ALPHA">      1.00000000</i>
  </separator>
  <separator name="linear response parameters" >
   <i type="logical" name="LEPSILON"> F  </i>
   <i type="logical" name="LRPA"> F  </i>
   <i type="logical" name="LNABLA"> F  </i>
   <i type="logical" name="LVEL"> F  </i>
   <i type="int" name="KINTER">     0</i>
   <i name="CSHIFT">      0.10000000</i>
   <i name="OMEGAMAX">     -1.00000000</i>
   <i name="DEG_THRESHOLD">      0.00200000</i>
   <i name="RTIME">     -0.10000000</i>
   <i name="WPLASMAI">      0.00000000</i>
   <v name="DFIELD">      0.00000000      0.00000000      0.00000000</v>
   <v name="WPLASMA">      0.00000000      0.00000000      0.00000000      0.00000000      0.00000000      0.00000000      0.00000000      0.00000000      0.00000000</v>
  </separator>
  <separator name="orbital magnetization" >
   <i type="logical" name="NUCIND"> F  </i>
   <v name="MAGPOS">      0.00000000      0.00000000      0.00000000</v>
   <i type="logical" name="LNICSALL"> T  </i>
   <i type="logical" name="ORBITALMAG"> F  </i>
   <i type="logical" name="LMAGBLOCH"> F  </i>
   <i type="logical" name="LCHIMAG"> F  </i>
   <i type="logical" name="LGAUGE"> T  </i>
   <i type="int" name="MAGATOM">     0</i>
   <v name="MAGDIPOL">      0.00000000      0.00000000      0.00000000</v>
   <v name="AVECCONST">      0.00000000      0.00000000      0.00000000</v>
  </separator>
  <separator name="response functions" >
   <i type="logical" name="LADDER"> F  </i>
   <i type="logical" name="LRPAFORCE"> F  </i>
   <i type="logical" name="LFXC"> F  </i>
   <i type="logical" name="LHARTREE"> T  </i>
   <i type="int" name="IBSE">     0</i>
   <v type="int" name="KPOINT">    -1     0     0     0</v>
   <i type="logical" name="LTCTE"> F  </i>
   <i type="logical" name="LTETE"> F  </i>
   <i type="logical" name="LTRIPLET"> F  </i>
   <i type="logical" name="LFXCEPS"> F  </i>
   <i type="logical" name="LFXHEG"> F  </i>
   <i type="int" name="NATURALO">     2</i>
   <i type="logical" name="L2ORDER"> F  </i>
   <i type="logical" name="LMP2LT"> F  </i>
   <i type="logical" name="LUSEW"> F  </i>
   <i name="ENCUTGW">     -2.00000000</i>
   <i name="ENCUTGWSOFT">     -2.00000000</i>
   <i name="ENCUTLF">     -1.00000000</i>
   <i type="int" name="LMAXMP2">    -1</i>
   <i name="SCISSOR">      0.00000000</i>
   <i type="int" name="NOMEGA">     0</i>
   <i type="int" name="NOMEGAR">     0</i>
   <i type="int" name="NBANDSGW">    -1</i>
   <i type="int" name="NBANDSO">    -1</i>
   <i type="int" name="NBANDSV">    -1</i>
   <i type="int" name="NELM">     1</i>
   <i type="int" name="NELMHF">     1</i>
   <i type="int" name="DIM">     3</i>
   <i type="int" name="ANTIRES">     0</i>
   <i name="OMEGAMAX">    -30.00000000</i>
   <i name="OMEGAMIN">    -30.00000000</i>
   <i name="OMEGATL">   -200.00000000</i>
   <i type="int" name="OMEGAGRID">   140</i>
   <i name="CSHIFT">     -0.10000000</i>
   <i type="logical" name="SELFENERGY"> F  </i>
   <i type="logical" name="LSPECTRAL"> F  </i>
   <i type="logical" name="LSPECTRALGW"> F  </i>
   <i type="logical" name="LSINGLES"> F  </i>
   <i type="logical" name="LFERMIGW"> F  </i>
   <i type="logical" name="ODDONLYGW"> F  </i>
   <i type="logical" name="EVENONLYGW"> F  </i>
   <i type="int" name="NKREDLFX">     1</i>
   <i type="int" name="NKREDLFY">     1</i>
   <i type="int" name="NKREDLFZ">     1</i>
   <i type="int" name="MAXMEM">  2800</i>
   <i type="int" name="TELESCOPE">     0</i>
   <i type="int" name="TAUPAR">     1</i>
   <i type="int" name="OMEGAPAR">    -1</i>
   <i name="LAMBDA">      1.00000000</i>
  </separator>
  <separator name="External order field" >
   <i name="OFIELD_KAPPA">      0.00000000</i>
   <v name="OFIELD_K">      0.00000000      0.00000000      0.00000000</v>
   <i name="OFIELD_Q6_NEAR">      0.00000000</i>
   <i name="OFIELD_Q6_FAR">      0.00000000</i>
   <i name="OFIELD_A">      0.00000000</i>
  </separator>
 </parameters>
 <atominfo>
  <atoms>      96 </atoms>
  <types>       3 </types>
  <array name="atoms" >
   <dimension dim="1">ion</dimension>
   <field type="string">element</field>
   <field type="int">atomtype</field>
   <set>
    <rc><c>Sn</c><c>   1</c></rc>
    <rc><c>Si</c><c>   2</c></rc>
    <rc><c>Si</c><c>   2</c></rc>
    <rc><c>Si</c><c>   2</c></rc>
    <rc><c>Si</c><c>   2</c></rc>
    <rc><c>Si</c><c>   2</c></rc>
    <rc><c>Si</c><c>   2</c></rc>
    <rc><c>Si</c><c>   2</c></rc>
    <rc><c>Si</c><c>   2</c></rc>
    <rc><c>Si</c><c>   2</c></rc>
    <rc><c>Si</c><c>   2</c></rc>
    <rc><c>Si</c><c>   2</c></rc>
    <rc><c>Si</c><c>   2</c></rc>
    <rc><c>Si</c><c>   2</c></rc>
    <rc><c>Si</c><c>   2</c></rc>
    <rc><c>Si</c><c>   2</c></rc>
    <rc><c>Si</c><c>   2</c></rc>
    <rc><c>Si</c><c>   2</c></rc>
    <rc><c>Si</c><c>   2</c></rc>
    <rc><c>Si</c><c>   2</c></rc>
    <rc><c>Si</c><c>   2</c></rc>
    <rc><c>Si</c><c>   2</c></rc>
    <rc><c>Si</c><c>   2</c></rc>
    <rc><c>Si</c><c>   2</c></rc>
    <rc><c>Si</c><c>   2</c></rc>
    <rc><c>Si</c><c>   2</c></rc>
    <rc><c>Si</c><c>   2</c></rc>
    <rc><c>Si</c><c>   2</c></rc>
    <rc><c>Si</c><c>   2</c></rc>
    <rc><c>Si</c><c>   2</c></rc>
    <rc><c>Si</c><c>   2</c></rc>
    <rc><c>Si</c><c>   2</c></rc>
    <rc><c>Mg</c><c>   3</c></rc>
    <rc><c>Mg</c><c>   3</c></rc>
    <rc><c>Mg</c><c>   3</c></rc>
    <rc><c>Mg</c><c>   3</c></rc>
    <rc><c>Mg</c><c>   3</c></rc>
    <rc><c>Mg</c><c>   3</c></rc>
    <rc><c>Mg</c><c>   3</c></rc>
    <rc><c>Mg</c><c>   3</c></rc>
    <rc><c>Mg</c><c>   3</c></rc>
    <rc><c>Mg</c><c>   3</c></rc>
    <rc><c>Mg</c><c>   3</c></rc>
    <rc><c>Mg</c><c>   3</c></rc>
    <rc><c>Mg</c><c>   3</c></rc>
    <rc><c>Mg</c><c>   3</c></rc>
    <rc><c>Mg</c><c>   3</c></rc>
    <rc><c>Mg</c><c>   3</c></rc>
    <rc><c>Mg</c><c>   3</c></rc>
    <rc><c>Mg</c><c>   3</c></rc>
    <rc><c>Mg</c><c>   3</c></rc>
    <rc><c>Mg</c><c>   3</c></rc>
    <rc><c>Mg</c><c>   3</c></rc>
    <rc><c>Mg</c><c>   3</c></rc>
    <rc><c>Mg</c><c>   3</c></rc>
    <rc><c>Mg</c><c>   3</c></rc>
    <rc><c>Mg</c><c>   3</c></rc>
    <rc><c>Mg</c><c>   3</c></rc>
    <rc><c>Mg</c><c>   3</c></rc>
    <rc><c>Mg</c><c>   3</c></rc>
    <rc><c>Mg</c><c>   3</c></rc>
    <rc><c>Mg</c><c>   3</c></rc>
    <rc><c>Mg</c><c>   3</c></rc>
    <rc><c>Mg</c><c>   3</c></rc>
    <rc><c>Mg</c><c>   3</c></rc>
    <rc><c>Mg</c><c>   3</c></rc>
    <rc><c>Mg</c><c>   3</c></rc>
    <rc><c>Mg</c><c>   3</c></rc>
    <rc><c>Mg</c><c>   3</c></rc>
    <rc><c>Mg</c><c>   3</c></rc>
    <rc><c>Mg</c><c>   3</c></rc>
    <rc><c>Mg</c><c>   3</c></rc>
    <rc><c>Mg</c><c>   3</c></rc>
    <rc><c>Mg</c><c>   3</c></rc>
    <rc><c>Mg</c><c>   3</c></rc>
    <rc><c>Mg</c><c>   3</c></rc>
    <rc><c>Mg</c><c>   3</c></rc>
    <rc><c>Mg</c><c>   3</c></rc>
    <rc><c>Mg</c><c>   3</c></rc>
    <rc><c>Mg</c><c>   3</c></rc>
    <rc><c>Mg</c><c>   3</c></rc>
    <rc><c>Mg</c><c>   3</c></rc>
    <rc><c>Mg</c><c>   3</c></rc>
    <rc><c>Mg</c><c>   3</c></rc>
    <rc><c>Mg</c><c>   3</c></rc>
    <rc><c>Mg</c><c>   3</c></rc>
    <rc><c>Mg</c><c>   3</c></rc>
    <rc><c>Mg</c><c>   3</c></rc>
    <rc><c>Mg</c><c>   3</c></rc>
    <rc><c>Mg</c><c>   3</c></rc>
    <rc><c>Mg</c><c>   3</c></rc>
    <rc><c>Mg</c><c>   3</c></rc>
    <rc><c>Mg</c><c>   3</c></rc>
    <rc><c>Mg</c><c>   3</c></rc>
    <rc><c>Mg</c><c>   3</c></rc>
    <rc><c>Mg</c><c>   3</c></rc>
   </set>
  </array>
  <array name="atomtypes" >
   <dimension dim="1">type</dimension>
   <field type="int">atomspertype</field>
   <field type="string">element</field>
   <field>mass</field>
   <field>valence</field>
   <field type="string">pseudopotential</field>
   <set>
    <rc><c>   1</c><c>Sn</c><c>    118.71000000</c><c>      4.00000000</c><c>  PAW_PBE Sn 08Apr2002                  </c></rc>
    <rc><c>  31</c><c>Si</c><c>     28.08500000</c><c>      4.00000000</c><c>  PAW_PBE Si 05Jan2001                  </c></rc>
    <rc><c>  64</c><c>Mg</c><c>     24.30500000</c><c>      2.00000000</c><c>  PAW_PBE Mg 13Apr2007                  </c></rc>
   </set>
  </array>
 </atominfo>
 <structure name="initialpos" >
  <crystal>
   <varray name="basis" >
    <v>      12.74739769       0.00000000       0.00000000 </v>
    <v>       0.00000000      12.74739769       0.00000000 </v>
    <v>       0.00000000       0.00000000      12.74739769 </v>
   </varray>
   <i name="volume">   2071.40301882 </i>
   <varray name="rec_basis" >
    <v>       0.07844738       0.00000000       0.00000000 </v>
    <v>       0.00000000       0.07844738       0.00000000 </v>
    <v>       0.00000000       0.00000000       0.07844738 </v>
   </varray>
  </crystal>
  <varray name="positions" >
   <v>       0.00000000       0.00000000       0.00000000 </v>
   <v>       0.50000000       0.00000000       0.00000000 </v>
   <v>       0.00000000       0.50000000       0.00000000 </v>
   <v>       0.50000000       0.50000000       0.00000000 </v>
   <v>       0.00000000       0.00000000       0.50000000 </v>
   <v>       0.50000000       0.00000000       0.50000000 </v>
   <v>       0.00000000       0.50000000       0.50000000 </v>
   <v>       0.50000000       0.50000000       0.50000000 </v>
   <v>       0.25140293       0.25140293       0.00000000 </v>
   <v>       0.74859707       0.25140293       0.00000000 </v>
   <v>       0.25140293       0.74859707       0.00000000 </v>
   <v>       0.74859707       0.74859707       0.00000000 </v>
   <v>       0.25012668       0.25012668       0.50000000 </v>
   <v>       0.74987332       0.25012668       0.50000000 </v>
   <v>       0.25012668       0.74987332       0.50000000 </v>
   <v>       0.74987332       0.74987332       0.50000000 </v>
   <v>       0.25140293       0.00000000       0.25140293 </v>
   <v>       0.74859707       0.00000000       0.25140293 </v>
   <v>       0.25012668       0.50000000       0.25012668 </v>
   <v>       0.74987332       0.50000000       0.25012668 </v>
   <v>       0.25140293       0.00000000       0.74859707 </v>
   <v>       0.74859707       0.00000000       0.74859707 </v>
   <v>       0.25012668       0.50000000       0.74987332 </v>
   <v>       0.74987332       0.50000000       0.74987332 </v>
   <v>       0.00000000       0.25140293       0.25140293 </v>
   <v>       0.50000000       0.25012668       0.25012668 </v>
   <v>       0.00000000       0.74859707       0.25140293 </v>
   <v>       0.50000000       0.74987332       0.25012668 </v>
   <v>       0.00000000       0.25140293       0.74859707 </v>
   <v>       0.50000000       0.25012668       0.74987332 </v>
   <v>       0.00000000       0.74859707       0.74859707 </v>
   <v>       0.50000000       0.74987332       0.74987332 </v>
   <v>       0.12960836       0.12960836       0.12960836 </v>
   <v>       0.62421357       0.12507203       0.12507203 </v>
   <v>       0.12507203       0.62421357       0.12507203 </v>
   <v>       0.62455273       0.62455273       0.12547987 </v>
   <v>       0.12507203       0.12507203       0.62421357 </v>
   <v>       0.62455273       0.12469540       0.62455273 </v>
   <v>       0.12469540       0.62455273       0.62455273 </v>
   <v>       0.62508239       0.62508239       0.62508239 </v>
   <v>       0.37578643       0.12507203       0.12507203 </v>
   <v>       0.87039164       0.12960836       0.12960836 </v>
   <v>       0.37544727       0.62455273       0.12469540 </v>
   <v>       0.87492797       0.62421357       0.12507203 </v>
   <v>       0.37544727       0.12469540       0.62455273 </v>
   <v>       0.87492797       0.12507203       0.62421357 </v>
   <v>       0.37491761       0.62508239       0.62508239 </v>
   <v>       0.87530460       0.62455273       0.62455273 </v>
   <v>       0.12507203       0.37578643       0.12507203 </v>
   <v>       0.62455273       0.37544727       0.12469540 </v>
   <v>       0.12960836       0.87039164       0.12960836 </v>
   <v>       0.62421357       0.87492797       0.12507203 </v>
   <v>       0.12469540       0.37544727       0.62455273 </v>
   <v>       0.62508239       0.37491761       0.62508239 </v>
   <v>       0.12507203       0.87492797       0.62421357 </v>
   <v>       0.62455273       0.87530460       0.62455273 </v>
   <v>       0.37544727       0.37544727       0.12469540 </v>
   <v>       0.87492797       0.37578643       0.12507203 </v>
   <v>       0.37578643       0.87492797       0.12507203 </v>
   <v>       0.87039164       0.87039164       0.12960836 </v>
   <v>       0.37491761       0.37491761       0.62508239 </v>
   <v>       0.87530460       0.37544727       0.62455273 </v>
   <v>       0.37544727       0.87530460       0.62455273 </v>
   <v>       0.87492797       0.87492797       0.62421357 </v>
   <v>       0.12507203       0.12507203       0.37578643 </v>
   <v>       0.62455273       0.12469540       0.37544727 </v>
   <v>       0.12469540       0.62455273       0.37544727 </v>
   <v>       0.62508239       0.62508239       0.37491761 </v>
   <v>       0.12960836       0.12960836       0.87039164 </v>
   <v>       0.62421357       0.12507203       0.87492797 </v>
   <v>       0.12507203       0.62421357       0.87492797 </v>
   <v>       0.62455273       0.62455273       0.87530460 </v>
   <v>       0.37544727       0.12469540       0.37544727 </v>
   <v>       0.87492797       0.12507203       0.37578643 </v>
   <v>       0.37491761       0.62508239       0.37491761 </v>
   <v>       0.87530460       0.62455273       0.37544727 </v>
   <v>       0.37578643       0.12507203       0.87492797 </v>
   <v>       0.87039164       0.12960836       0.87039164 </v>
   <v>       0.37544727       0.62455273       0.87530460 </v>
   <v>       0.87492797       0.62421357       0.87492797 </v>
   <v>       0.12469540       0.37544727       0.37544727 </v>
   <v>       0.62508239       0.37491761       0.37491761 </v>
   <v>       0.12507203       0.87492797       0.37578643 </v>
   <v>       0.62455273       0.87530460       0.37544727 </v>
   <v>       0.12507203       0.37578643       0.87492797 </v>
   <v>       0.62455273       0.37544727       0.87530460 </v>
   <v>       0.12960836       0.87039164       0.87039164 </v>
   <v>       0.62421357       0.87492797       0.87492797 </v>
   <v>       0.37491761       0.37491761       0.37491761 </v>
   <v>       0.87530460       0.37544727       0.37544727 </v>
   <v>       0.37544727       0.87530460       0.37544727 </v>
   <v>       0.87492797       0.87492797       0.37578643 </v>
   <v>       0.37544727       0.37544727       0.87530460 </v>
   <v>       0.87492797       0.37578643       0.87492797 </v>
   <v>       0.37578643       0.87492797       0.87492797 </v>
   <v>       0.87039164       0.87039164       0.87039164 </v>
  </varray>
 </structure>
 <calculation>
  <scstep>
   <time name="dav">   13.34   13.38</time>
   <time name="total">   14.14   14.18</time>
   <energy>
    <i name="alphaZ">    214.09658884 </i>
    <i name="ewald">  -5218.83077775 </i>
    <i name="hartreedc">   -333.02996024 </i>
    <i name="XCdc">  -3539.85012651 </i>
    <i name="pawpsdc">   7100.88161447 </i>
    <i name="pawaedc">  -3112.42095010 </i>
    <i name="eentropy">     -0.00000000 </i>
    <i name="bandstr">    447.64767466 </i>
    <i name="atom">   4763.39200965 </i>
    <i name="e_fr_energy">    321.88607302 </i>
    <i name="e_wo_entrp">    321.88607302 </i>
    <i name="e_0_energy">    321.88607302 </i>
   </energy>
  </scstep>
  <scstep>
   <time name="dav">   16.01   16.04</time>
   <time name="total">   16.01   16.04</time>
   <energy>
    <i name="e_fr_energy">   -253.38058168 </i>
    <i name="e_wo_entrp">   -253.38058168 </i>
    <i name="e_0_energy">   -253.38058168 </i>
   </energy>
  </scstep>
  <scstep>
   <time name="dav">   15.90   15.93</time>
   <time name="total">   15.90   15.93</time>
   <energy>
    <i name="e_fr_energy">   -296.45470143 </i>
    <i name="e_wo_entrp">   -296.45470143 </i>
    <i name="e_0_energy">   -296.45470143 </i>
   </energy>
  </scstep>
  <scstep>
   <time name="dav">   15.67   15.70</time>
   <time name="total">   15.67   15.70</time>
   <energy>
    <i name="e_fr_energy">   -297.34074242 </i>
    <i name="e_wo_entrp">   -297.34074242 </i>
    <i name="e_0_energy">   -297.34074242 </i>
   </energy>
  </scstep>
  <scstep>
   <time name="dav">   16.14   16.16</time>
   <time name="total">   16.55   16.58</time>
   <energy>
    <i name="e_fr_energy">   -297.36479628 </i>
    <i name="e_wo_entrp">   -297.36479628 </i>
    <i name="e_0_energy">   -297.36479628 </i>
   </energy>
  </scstep>
  <scstep>
   <time name="dav">   13.73   13.76</time>
   <time name="total">   14.95   14.98</time>
   <energy>
    <i name="e_fr_energy">   -280.23953715 </i>
    <i name="e_wo_entrp">   -280.23953715 </i>
    <i name="e_0_energy">   -280.23953715 </i>
   </energy>
  </scstep>
  <scstep>
   <time name="dav">   14.61   14.63</time>
   <time name="total">   15.83   15.86</time>
   <energy>
    <i name="e_fr_energy">   -277.76408932 </i>
    <i name="e_wo_entrp">   -277.76408926 </i>
    <i name="e_0_energy">   -277.76408929 </i>
   </energy>
  </scstep>
  <scstep>
   <time name="dav">   14.51   14.54</time>
   <time name="total">   15.73   15.76</time>
   <energy>
    <i name="e_fr_energy">   -277.76825934 </i>
    <i name="e_wo_entrp">   -277.76825934 </i>
    <i name="e_0_energy">   -277.76825934 </i>
   </energy>
  </scstep>
  <scstep>
   <time name="dav">   15.19   15.21</time>
   <time name="total">   16.41   16.44</time>
   <energy>
    <i name="e_fr_energy">   -277.76499777 </i>
    <i name="e_wo_entrp">   -277.76499777 </i>
    <i name="e_0_energy">   -277.76499777 </i>
   </energy>
  </scstep>
  <scstep>
   <time name="dav">   14.96   14.99</time>
   <time name="total">   16.19   16.22</time>
   <energy>
    <i name="e_fr_energy">   -277.76823604 </i>
    <i name="e_wo_entrp">   -277.76823604 </i>
    <i name="e_0_energy">   -277.76823604 </i>
   </energy>
  </scstep>
  <scstep>
   <time name="dav">   14.96   14.99</time>
   <time name="total">   16.19   16.21</time>
   <energy>
    <i name="e_fr_energy">   -277.76866415 </i>
    <i name="e_wo_entrp">   -277.76866415 </i>
    <i name="e_0_energy">   -277.76866415 </i>
   </energy>
  </scstep>
  <scstep>
   <time name="dav">   16.12   16.15</time>
   <time name="total">   17.33   17.36</time>
   <energy>
    <i name="e_fr_energy">   -277.76856590 </i>
    <i name="e_wo_entrp">   -277.76856590 </i>
    <i name="e_0_energy">   -277.76856590 </i>
   </energy>
  </scstep>
  <scstep>
   <time name="dav">   15.43   15.46</time>
   <time name="total">   16.64   16.67</time>
   <energy>
    <i name="e_fr_energy">   -277.76853955 </i>
    <i name="e_wo_entrp">   -277.76853955 </i>
    <i name="e_0_energy">   -277.76853955 </i>
   </energy>
  </scstep>
  <scstep>
   <time name="dav">   14.73   14.76</time>
   <time name="total">   15.94   15.97</time>
   <energy>
    <i name="e_fr_energy">   -277.76854605 </i>
    <i name="e_wo_entrp">   -277.76854605 </i>
    <i name="e_0_energy">   -277.76854605 </i>
   </energy>
  </scstep>
  <scstep>
   <time name="dav">   14.73   14.75</time>
   <time name="total">   15.94   15.97</time>
   <energy>
    <i name="e_fr_energy">   -277.76854561 </i>
    <i name="e_wo_entrp">   -277.76854561 </i>
    <i name="e_0_energy">   -277.76854561 </i>
   </energy>
  </scstep>
  <scstep>
   <time name="dav">   15.18   15.21</time>
   <time name="total">   16.40   16.43</time>
   <energy>
    <i name="e_fr_energy">   -277.76854585 </i>
    <i name="e_wo_entrp">   -277.76854585 </i>
    <i name="e_0_energy">   -277.76854585 </i>
   </energy>
  </scstep>
  <scstep>
   <time name="dav">   14.71   14.74</time>
   <time name="total">   15.92   15.95</time>
   <energy>
    <i name="e_fr_energy">   -277.76854605 </i>
    <i name="e_wo_entrp">   -277.76854605 </i>
    <i name="e_0_energy">   -277.76854605 </i>
   </energy>
  </scstep>
  <scstep>
   <time name="dav">   14.48   14.51</time>
   <time name="total">   15.70   15.72</time>
   <energy>
    <i name="e_fr_energy">   -277.76854603 </i>
    <i name="e_wo_entrp">   -277.76854603 </i>
    <i name="e_0_energy">   -277.76854603 </i>
   </energy>
  </scstep>
  <scstep>
   <time name="dav">   11.00   11.02</time>
   <time name="total">   12.22   12.24</time>
   <energy>
    <i name="e_fr_energy">   -277.76854607 </i>
    <i name="e_wo_entrp">   -277.76854607 </i>
    <i name="e_0_energy">   -277.76854607 </i>
   </energy>
  </scstep>
  <scstep>
   <time name="dav">   10.07   10.08</time>
   <time name="total">   11.29   11.31</time>
   <energy>
    <i name="e_fr_energy">   -277.76854609 </i>
    <i name="e_wo_entrp">   -277.76854609 </i>
    <i name="e_0_energy">   -277.76854609 </i>
   </energy>
  </scstep>
  <scstep>
   <time name="dav">    9.83    9.85</time>
   <time name="total">   11.06   11.08</time>
   <energy>
    <i name="e_fr_energy">   -277.76854607 </i>
    <i name="e_wo_entrp">   -277.76854607 </i>
    <i name="e_0_energy">   -277.76854607 </i>
   </energy>
  </scstep>
  <scstep>
   <time name="dav">   10.07   10.09</time>
   <time name="total">   10.88   10.90</time>
   <energy>
    <i name="alphaZ">    214.09658884 </i>
    <i name="ewald">  -5218.83077775 </i>
    <i name="hartreedc">   -486.12581414 </i>
    <i name="XCdc">  -3511.70766117 </i>
    <i name="pawpsdc">  17714.23545295 </i>
    <i name="pawaedc"> -13730.55723004 </i>
    <i name="eentropy">     -0.00000000 </i>
    <i name="bandstr">    -22.27111442 </i>
    <i name="atom">   4763.39200965 </i>
    <i name="e_fr_energy">   -277.76854607 </i>
    <i name="e_wo_entrp">   -277.76854607 </i>
    <i name="e_0_energy">   -277.76854607 </i>
   </energy>
  </scstep>
  <structure>
   <crystal>
    <varray name="basis" >
     <v>      12.74739769       0.00000000       0.00000000 </v>
     <v>       0.00000000      12.74739769       0.00000000 </v>
     <v>       0.00000000       0.00000000      12.74739769 </v>
    </varray>
    <i name="volume">   2071.40301882 </i>
    <varray name="rec_basis" >
     <v>       0.07844738       0.00000000       0.00000000 </v>
     <v>       0.00000000       0.07844738       0.00000000 </v>
     <v>       0.00000000       0.00000000       0.07844738 </v>
    </varray>
   </crystal>
   <varray name="positions" >
    <v>       0.00000000       0.00000000       0.00000000 </v>
    <v>       0.50000000       0.00000000       0.00000000 </v>
    <v>       0.00000000       0.50000000       0.00000000 </v>
    <v>       0.50000000       0.50000000       0.00000000 </v>
    <v>       0.00000000       0.00000000       0.50000000 </v>
    <v>       0.50000000       0.00000000       0.50000000 </v>
    <v>       0.00000000       0.50000000       0.50000000 </v>
    <v>       0.50000000       0.50000000       0.50000000 </v>
    <v>       0.25140293       0.25140293       0.00000000 </v>
    <v>       0.74859707       0.25140293       0.00000000 </v>
    <v>       0.25140293       0.74859707       0.00000000 </v>
    <v>       0.74859707       0.74859707       0.00000000 </v>
    <v>       0.25012668       0.25012668       0.50000000 </v>
    <v>       0.74987332       0.25012668       0.50000000 </v>
    <v>       0.25012668       0.74987332       0.50000000 </v>
    <v>       0.74987332       0.74987332       0.50000000 </v>
    <v>       0.25140293       0.00000000       0.25140293 </v>
    <v>       0.74859707       0.00000000       0.25140293 </v>
    <v>       0.25012668       0.50000000       0.25012668 </v>
    <v>       0.74987332       0.50000000       0.25012668 </v>
    <v>       0.25140293       0.00000000       0.74859707 </v>
    <v>       0.74859707       0.00000000       0.74859707 </v>
    <v>       0.25012668       0.50000000       0.74987332 </v>
    <v>       0.74987332       0.50000000       0.74987332 </v>
    <v>       0.00000000       0.25140293       0.25140293 </v>
    <v>       0.50000000       0.25012668       0.25012668 </v>
    <v>       0.00000000       0.74859707       0.25140293 </v>
    <v>       0.50000000       0.74987332       0.25012668 </v>
    <v>       0.00000000       0.25140293       0.74859707 </v>
    <v>       0.50000000       0.25012668       0.74987332 </v>
    <v>       0.00000000       0.74859707       0.74859707 </v>
    <v>       0.50000000       0.74987332       0.74987332 </v>
    <v>       0.12960836       0.12960836       0.12960836 </v>
    <v>       0.62421357       0.12507203       0.12507203 </v>
    <v>       0.12507203       0.62421357       0.12507203 </v>
    <v>       0.62455273       0.62455273       0.12547987 </v>
    <v>       0.12507203       0.12507203       0.62421357 </v>
    <v>       0.62455273       0.12469540       0.62455273 </v>
    <v>       0.12469540       0.62455273       0.62455273 </v>
    <v>       0.62508239       0.62508239       0.62508239 </v>
    <v>       0.37578643       0.12507203       0.12507203 </v>
    <v>       0.87039164       0.12960836       0.12960836 </v>
    <v>       0.37544727       0.62455273       0.12469540 </v>
    <v>       0.87492797       0.62421357       0.12507203 </v>
    <v>       0.37544727       0.12469540       0.62455273 </v>
    <v>       0.87492797       0.12507203       0.62421357 </v>
    <v>       0.37491761       0.62508239       0.62508239 </v>
    <v>       0.87530460       0.62455273       0.62455273 </v>
    <v>       0.12507203       0.37578643       0.12507203 </v>
    <v>       0.62455273       0.37544727       0.12469540 </v>
    <v>       0.12960836       0.87039164       0.12960836 </v>
    <v>       0.62421357       0.87492797       0.12507203 </v>
    <v>       0.12469540       0.37544727       0.62455273 </v>
    <v>       0.62508239       0.37491761       0.62508239 </v>
    <v>       0.12507203       0.87492797       0.62421357 </v>
    <v>       0.62455273       0.87530460       0.62455273 </v>
    <v>       0.37544727       0.37544727       0.12469540 </v>
    <v>       0.87492797       0.37578643       0.12507203 </v>
    <v>       0.37578643       0.87492797       0.12507203 </v>
    <v>       0.87039164       0.87039164       0.12960836 </v>
    <v>       0.37491761       0.37491761       0.62508239 </v>
    <v>       0.87530460       0.37544727       0.62455273 </v>
    <v>       0.37544727       0.87530460       0.62455273 </v>
    <v>       0.87492797       0.87492797       0.62421357 </v>
    <v>       0.12507203       0.12507203       0.37578643 </v>
    <v>       0.62455273       0.12469540       0.37544727 </v>
    <v>       0.12469540       0.62455273       0.37544727 </v>
    <v>       0.62508239       0.62508239       0.37491761 </v>
    <v>       0.12960836       0.12960836       0.87039164 </v>
    <v>       0.62421357       0.12507203       0.87492797 </v>
    <v>       0.12507203       0.62421357       0.87492797 </v>
    <v>       0.62455273       0.62455273       0.87530460 </v>
    <v>       0.37544727       0.12469540       0.37544727 </v>
    <v>       0.87492797       0.12507203       0.37578643 </v>
    <v>       0.37491761       0.62508239       0.37491761 </v>
    <v>       0.87530460       0.62455273       0.37544727 </v>
    <v>       0.37578643       0.12507203       0.87492797 </v>
    <v>       0.87039164       0.12960836       0.87039164 </v>
    <v>       0.37544727       0.62455273       0.87530460 </v>
    <v>       0.87492797       0.62421357       0.87492797 </v>
    <v>       0.12469540       0.37544727       0.37544727 </v>
    <v>       0.62508239       0.37491761       0.37491761 </v>
    <v>       0.12507203       0.87492797       0.37578643 </v>
    <v>       0.62455273       0.87530460       0.37544727 </v>
    <v>       0.12507203       0.37578643       0.87492797 </v>
    <v>       0.62455273       0.37544727       0.87530460 </v>
    <v>       0.12960836       0.87039164       0.87039164 </v>
    <v>       0.62421357       0.87492797       0.87492797 </v>
    <v>       0.37491761       0.37491761       0.37491761 </v>
    <v>       0.87530460       0.37544727       0.37544727 </v>
    <v>       0.37544727       0.87530460       0.37544727 </v>
    <v>       0.87492797       0.87492797       0.37578643 </v>
    <v>       0.37544727       0.37544727       0.87530460 </v>
    <v>       0.87492797       0.37578643       0.87492797 </v>
    <v>       0.37578643       0.87492797       0.87492797 </v>
    <v>       0.87039164       0.87039164       0.87039164 </v>
   </varray>
  </structure>
  <varray name="forces" >
   <v>       0.00049150       0.00049146       0.00026195 </v>
   <v>      -0.00046379      -0.00009920       0.00060041 </v>
   <v>      -0.00009928      -0.00046379       0.00060051 </v>
   <v>       0.00374060       0.00374052       0.00647444 </v>
   <v>      -0.00002891      -0.00002901      -0.00022628 </v>
   <v>      -0.00021896      -0.00043070      -0.00059445 </v>
   <v>      -0.00043069      -0.00021888      -0.00059452 </v>
   <v>       0.00019847       0.00019849      -0.00070363 </v>
   <v>       0.00577333       0.00577332       0.00030914 </v>
   <v>      -0.00584145       0.00646193       0.00065184 </v>
   <v>       0.00646185      -0.00584146       0.00065191 </v>
   <v>      -0.01042140      -0.01042148       0.00671133 </v>
   <v>      -0.00342866      -0.00342870      -0.00020005 </v>
   <v>       0.00365175      -0.00304613      -0.00058700 </v>
   <v>      -0.00304614       0.00365180      -0.00058712 </v>
   <v>       0.00324716       0.00324715      -0.00066851 </v>
   <v>       0.00698793      -0.00069257       0.00658630 </v>
   <v>      -0.00674484       0.00004741       0.00691058 </v>
   <v>      -0.00351900       0.00041912      -0.00286419 </v>
   <v>       0.00711708      -0.00362223       0.00295607 </v>
   <v>       0.00636224      -0.00000514      -0.00656679 </v>
   <v>      -0.00646490       0.00039521      -0.00694940 </v>
   <v>      -0.00383433       0.00014771       0.00284437 </v>
   <v>       0.00372501      -0.00027128       0.00272634 </v>
   <v>      -0.00069251       0.00698797       0.00658618 </v>
   <v>       0.00041906      -0.00351896      -0.00286420 </v>
   <v>       0.00004745      -0.00674486       0.00691057 </v>
   <v>      -0.00362229       0.00711705       0.00295613 </v>
   <v>      -0.00000518       0.00636221      -0.00656672 </v>
   <v>       0.00014775      -0.00383437       0.00284440 </v>
   <v>       0.00039519      -0.00646483      -0.00694939 </v>
   <v>      -0.00027123       0.00372503       0.00272628 </v>
   <v>      -0.01485236      -0.01485234      -0.01647783 </v>
   <v>      -0.00156432       0.00052719       0.00046240 </v>
   <v>       0.00052720      -0.00156429       0.00046238 </v>
   <v>      -0.00022712      -0.00022712      -0.04270198 </v>
   <v>       0.00052679       0.00052681      -0.00138761 </v>
   <v>      -0.00047117      -0.00034227      -0.00042358 </v>
   <v>      -0.00034228      -0.00047121      -0.00042358 </v>
   <v>      -0.00089090      -0.00089088      -0.00039070 </v>
   <v>       0.00156553       0.00087482      -0.00008336 </v>
   <v>       0.01486615      -0.01522531      -0.01546411 </v>
   <v>       0.00049079      -0.00182972      -0.00304010 </v>
   <v>      -0.00055203      -0.00020245      -0.00212896 </v>
   <v>       0.00047452      -0.00043953      -0.00039219 </v>
   <v>      -0.00053360       0.00060849      -0.00148761 </v>
   <v>       0.00090049      -0.00053770      -0.00061346 </v>
   <v>       0.00033437      -0.00083246      -0.00019341 </v>
   <v>       0.00087479       0.00156549      -0.00008336 </v>
   <v>      -0.00182975       0.00049078      -0.00304008 </v>
   <v>      -0.01522531       0.01486615      -0.01546413 </v>
   <v>      -0.00020245      -0.00055201      -0.00212895 </v>
   <v>      -0.00043953       0.00047453      -0.00039219 </v>
   <v>      -0.00053768       0.00090048      -0.00061349 </v>
   <v>       0.00060845      -0.00053360      -0.00148759 </v>
   <v>      -0.00083245       0.00033435      -0.00019338 </v>
   <v>       0.00118069       0.00118065      -0.00239455 </v>
   <v>       0.00017456       0.00086451      -0.00152216 </v>
   <v>       0.00086452       0.00017455      -0.00152218 </v>
   <v>       0.01422654       0.01422656      -0.01685082 </v>
   <v>       0.00076477       0.00076480      -0.00070303 </v>
   <v>       0.00021121       0.00061951      -0.00027388 </v>
   <v>       0.00061953       0.00021119      -0.00027385 </v>
   <v>      -0.00039404      -0.00039406      -0.00137734 </v>
   <v>       0.00051872       0.00051873       0.00230065 </v>
   <v>      -0.00047598      -0.00033381       0.00049039 </v>
   <v>      -0.00033384      -0.00047600       0.00049041 </v>
   <v>      -0.00086352      -0.00086352       0.01088876 </v>
   <v>      -0.01486104      -0.01486103       0.01554498 </v>
   <v>      -0.00156983       0.00051742      -0.00051366 </v>
   <v>       0.00051744      -0.00156981      -0.00051367 </v>
   <v>      -0.00047087      -0.00047085       0.01032461 </v>
   <v>       0.00082193      -0.00021092       0.00073490 </v>
   <v>      -0.00086430       0.00039598       0.00182520 </v>
   <v>      -0.00013400      -0.00159418       0.00189696 </v>
   <v>       0.00135995       0.00022325       0.00147469 </v>
   <v>       0.00122216       0.00065817      -0.00026723 </v>
   <v>       0.01520000      -0.01500822       0.01511198 </v>
   <v>       0.00152533      -0.00119087       0.00135363 </v>
   <v>      -0.00158700      -0.00086538       0.00048619 </v>
   <v>      -0.00021095       0.00082192       0.00073492 </v>
   <v>      -0.00159419      -0.00013402       0.00189696 </v>
   <v>       0.00039598      -0.00086428       0.00182521 </v>
   <v>       0.00022327       0.00135995       0.00147466 </v>
   <v>       0.00065818       0.00122216      -0.00026726 </v>
   <v>      -0.00119087       0.00152535       0.00135365 </v>
   <v>      -0.01500824       0.01519999       0.01511200 </v>
   <v>      -0.00086540      -0.00158700       0.00048619 </v>
   <v>       0.00080718       0.00080715       0.00073786 </v>
   <v>       0.00082407       0.00000510       0.00250007 </v>
   <v>       0.00000509       0.00082406       0.00250004 </v>
   <v>      -0.00043574      -0.00043571       0.00140734 </v>
   <v>       0.00095690       0.00095692       0.00237659 </v>
   <v>      -0.00062549       0.00166474      -0.00068732 </v>
   <v>       0.00166476      -0.00062551      -0.00068731 </v>
   <v>       0.01444158       0.01444157       0.01682578 </v>
  </varray>
  <varray name="stress" >
   <v>      -1.01949995      -0.01003993       0.00036104 </v>
   <v>      -0.01003991      -1.01950022       0.00036136 </v>
   <v>       0.00036140       0.00036168      -1.01960951 </v>
  </varray>
  <energy>
   <i name="e_fr_energy">   -277.76854607 </i>
   <i name="e_wo_entrp">   -277.76854607 </i>
   <i name="e_0_energy">     -0.00000000 </i>
  </energy>
  <time name="totalsc">  367.23  367.90</time>
  <eigenvalues>
   <array>
    <dimension dim="1">band</dimension>
    <dimension dim="2">kpoint</dimension>
    <dimension dim="3">spin</dimension>
    <field>eigene</field>
    <field>occ</field>
    <set>
     <set comment="spin 1">
      <set comment="kpoint 1">
       <r>   -5.4896    1.0000 </r>
       <r>   -4.7782    1.0000 </r>
       <r>   -4.7772    1.0000 </r>
       <r>   -4.7697    1.0000 </r>
       <r>   -4.7691    1.0000 </r>
       <r>   -4.7685    1.0000 </r>
       <r>   -4.7410    1.0000 </r>
       <r>   -4.2066    1.0000 </r>
       <r>   -4.2051    1.0000 </r>
       <r>   -4.2010    1.0000 </r>
       <r>   -4.2003    1.0000 </r>
       <r>   -4.2000    1.0000 </r>
       <r>   -4.1959    1.0000 </r>
       <r>   -4.1956    1.0000 </r>
       <r>   -4.1946    1.0000 </r>
       <r>   -4.1862    1.0000 </r>
       <r>   -4.1857    1.0000 </r>
       <r>   -4.1850    1.0000 </r>
       <r>   -4.1413    1.0000 </r>
       <r>   -4.0668    1.0000 </r>
       <r>   -4.0666    1.0000 </r>
       <r>   -4.0655    1.0000 </r>
       <r>   -4.0492    1.0000 </r>
       <r>   -3.5084    1.0000 </r>
       <r>   -3.5077    1.0000 </r>
       <r>   -3.4977    1.0000 </r>
       <r>   -3.4679    1.0000 </r>
       <r>   -3.4666    1.0000 </r>
       <r>   -3.4609    1.0000 </r>
       <r>   -3.4602    1.0000 </r>
       <r>   -3.4598    1.0000 </r>
       <r>   -3.3906    1.0000 </r>
       <r>   -1.1934    1.0000 </r>
       <r>   -1.1585    1.0000 </r>
       <r>   -1.1577    1.0000 </r>
       <r>   -1.1574    1.0000 </r>
       <r>   -0.8439    1.0000 </r>
       <r>   -0.8439    1.0000 </r>
       <r>   -0.8439    1.0000 </r>
       <r>   -0.0451    1.0000 </r>
       <r>   -0.0446    1.0000 </r>
       <r>   -0.0446    1.0000 </r>
       <r>   -0.0341    1.0000 </r>
       <r>   -0.0337    1.0000 </r>
       <r>   -0.0337    1.0000 </r>
       <r>   -0.0261    1.0000 </r>
       <r>   -0.0260    1.0000 </r>
       <r>   -0.0257    1.0000 </r>
       <r>   -0.0009    1.0000 </r>
       <r>   -0.0004    1.0000 </r>
       <r>   -0.0003    1.0000 </r>
       <r>    0.0104    1.0000 </r>
       <r>    0.0107    1.0000 </r>
       <r>    0.0109    1.0000 </r>
       <r>    0.0120    1.0000 </r>
       <r>    0.0125    1.0000 </r>
       <r>    0.0133    1.0000 </r>
       <r>    0.0138    1.0000 </r>
       <r>    0.0143    1.0000 </r>
       <r>    0.0539    1.0000 </r>
       <r>    0.0541    1.0000 </r>
       <r>    0.0547    1.0000 </r>
       <r>    0.0684    1.0000 </r>
       <r>    0.7621    1.0000 </r>
       <r>    0.7624    1.0000 </r>
       <r>    0.7685    1.0000 </r>
       <r>    0.7833    1.0000 </r>
       <r>    0.7834    1.0000 </r>
       <r>    0.7841    1.0000 </r>
       <r>    0.8015    1.0000 </r>
       <r>    0.8017    1.0000 </r>
       <r>    0.8017    1.0000 </r>
       <r>    0.8018    1.0000 </r>
       <r>    0.8022    1.0000 </r>
       <r>    0.8031    1.0000 </r>
       <r>    0.9188    1.0000 </r>
       <r>    0.9354    1.0000 </r>
       <r>    0.9356    1.0000 </r>
       <r>    0.9357    1.0000 </r>
       <r>    0.9577    1.0000 </r>
       <r>    0.9578    1.0000 </r>
       <r>    1.1733    1.0000 </r>
       <r>    1.1737    1.0000 </r>
       <r>    1.1739    1.0000 </r>
       <r>    1.1740    1.0000 </r>
       <r>    1.1746    1.0000 </r>
       <r>    1.2245    1.0000 </r>
       <r>    1.6498    1.0000 </r>
       <r>    1.6499    1.0000 </r>
       <r>    1.6501    1.0000 </r>
       <r>    1.6525    1.0000 </r>
       <r>    1.6526    1.0000 </r>
       <r>    1.6529    1.0000 </r>
       <r>    2.3234    1.0000 </r>
       <r>    2.3240    1.0000 </r>
       <r>    2.3241    1.0000 </r>
       <r>    2.3308    1.0000 </r>
       <r>    2.3310    1.0000 </r>
       <r>    2.3311    1.0000 </r>
       <r>    2.3312    1.0000 </r>
       <r>    2.3317    1.0000 </r>
       <r>    2.3321    1.0000 </r>
       <r>    2.3812    1.0000 </r>
       <r>    2.3812    1.0000 </r>
       <r>    2.3813    1.0000 </r>
       <r>    2.7657    1.0000 </r>
       <r>    2.7666    1.0000 </r>
       <r>    2.7668    1.0000 </r>
       <r>    2.7789    1.0000 </r>
       <r>    2.7797    1.0000 </r>
       <r>    2.7805    1.0000 </r>
       <r>    2.7876    1.0000 </r>
       <r>    2.7948    1.0000 </r>
       <r>    2.7957    1.0000 </r>
       <r>    2.8221    1.0000 </r>
       <r>    2.8221    1.0000 </r>
       <r>    2.8224    1.0000 </r>
       <r>    2.8676    1.0000 </r>
       <r>    2.8682    1.0000 </r>
       <r>    2.8942    1.0000 </r>
       <r>    2.8950    1.0000 </r>
       <r>    2.8954    1.0000 </r>
       <r>    2.9792    1.0000 </r>
       <r>    2.9796    1.0000 </r>
       <r>    2.9801    1.0000 </r>
       <r>    3.6209    1.0000 </r>
       <r>    3.6212    1.0000 </r>
       <r>    3.6217    1.0000 </r>
       <r>    3.7502    0.0000 </r>
       <r>    3.7928    0.0000 </r>
       <r>    3.7938    0.0000 </r>
       <r>    3.9520    0.0000 </r>
       <r>    3.9521    0.0000 </r>
       <r>    3.9521    0.0000 </r>
       <r>    4.7267    0.0000 </r>
       <r>    4.7270    0.0000 </r>
       <r>    4.7591    0.0000 </r>
       <r>    4.7591    0.0000 </r>
       <r>    4.7594    0.0000 </r>
       <r>    4.7617    0.0000 </r>
       <r>    4.8106    0.0000 </r>
       <r>    4.8106    0.0000 </r>
       <r>    4.8114    0.0000 </r>
       <r>    4.8422    0.0000 </r>
       <r>    5.3087    0.0000 </r>
       <r>    5.3096    0.0000 </r>
       <r>    5.3097    0.0000 </r>
       <r>    5.3199    0.0000 </r>
       <r>    5.3202    0.0000 </r>
       <r>    5.3250    0.0000 </r>
       <r>    5.3250    0.0000 </r>
       <r>    5.3255    0.0000 </r>
       <r>    5.3332    0.0000 </r>
       <r>    5.3645    0.0000 </r>
       <r>    5.3648    0.0000 </r>
       <r>    5.3656    0.0000 </r>
       <r>    5.3724    0.0000 </r>
       <r>    5.3733    0.0000 </r>
       <r>    5.3737    0.0000 </r>
       <r>    5.3740    0.0000 </r>
       <r>    5.4344    0.0000 </r>
       <r>    5.4349    0.0000 </r>
       <r>    5.5279    0.0000 </r>
       <r>    6.0778    0.0000 </r>
       <r>    6.0781    0.0000 </r>
       <r>    6.0783    0.0000 </r>
       <r>    6.0995    0.0000 </r>
       <r>    6.1001    0.0000 </r>
       <r>    6.1006    0.0000 </r>
       <r>    6.1462    0.0000 </r>
       <r>    6.1464    0.0000 </r>
       <r>    6.1490    0.0000 </r>
       <r>    6.1491    0.0000 </r>
       <r>    6.1502    0.0000 </r>
       <r>    6.2470    0.0000 </r>
       <r>    6.2495    0.0000 </r>
       <r>    6.2570    0.0000 </r>
       <r>    6.2743    0.0000 </r>
      </set>
     </set>
    </set>
   </array>
  </eigenvalues>
  <separator name="orbital magnetization" >
   <v name="MAGDIPOLOUT">      0.00000000      0.00000000      0.00000000</v>
  </separator>
  <dos>
   <i name="efermi">      3.68136634 </i>
   <total>
    <array>
     <dimension dim="1">gridpoints</dimension>
     <dimension dim="2">spin</dimension>
     <field>energy</field>
     <field>total</field>
     <field>integrated</field>
     <set>
      <set comment="spin 1">
       <r>    -6.0778     0.0000     0.0000 </r>
       <r>    -6.0346     0.0000     0.0000 </r>
       <r>    -5.9915     0.0000     0.0000 </r>
       <r>    -5.9484     0.0000     0.0000 </r>
       <r>    -5.9052     0.0000     0.0000 </r>
       <r>    -5.8621     0.0000     0.0000 </r>
       <r>    -5.8190     0.0000     0.0000 </r>
       <r>    -5.7758     0.0000     0.0000 </r>
       <r>    -5.7327     0.0000     0.0000 </r>
       <r>    -5.6896     0.0000     0.0000 </r>
       <r>    -5.6464     0.0000     0.0000 </r>
       <r>    -5.6033     0.0000     0.0000 </r>
       <r>    -5.5602     0.0000     0.0000 </r>
       <r>    -5.5170     0.0024     0.0001 </r>
       <r>    -5.4739    45.7491     1.9735 </r>
       <r>    -5.4308     0.6153     2.0000 </r>
       <r>    -5.3876     0.0000     2.0000 </r>
       <r>    -5.3445     0.0000     2.0000 </r>
       <r>    -5.3014     0.0000     2.0000 </r>
       <r>    -5.2582     0.0000     2.0000 </r>
       <r>    -5.2151     0.0000     2.0000 </r>
       <r>    -5.1720     0.0000     2.0000 </r>
       <r>    -5.1288     0.0000     2.0000 </r>
       <r>    -5.0857     0.0000     2.0000 </r>
       <r>    -5.0425     0.0000     2.0000 </r>
       <r>    -4.9994     0.0000     2.0000 </r>
       <r>    -4.9563     0.0000     2.0000 </r>
       <r>    -4.9131     0.0000     2.0000 </r>
       <r>    -4.8700     0.0000     2.0000 </r>
       <r>    -4.8269     0.0000     2.0000 </r>
       <r>    -4.7837    21.0173     2.9066 </r>
       <r>    -4.7406   234.9962    13.0430 </r>
       <r>    -4.6975    22.1872    14.0000 </r>
       <r>    -4.6543     0.0000    14.0000 </r>
       <r>    -4.6112     0.0000    14.0000 </r>
       <r>    -4.5681     0.0000    14.0000 </r>
       <r>    -4.5249     0.0000    14.0000 </r>
       <r>    -4.4818     0.0000    14.0000 </r>
       <r>    -4.4387     0.0000    14.0000 </r>
       <r>    -4.3955     0.0000    14.0000 </r>
       <r>    -4.3524     0.0000    14.0000 </r>
       <r>    -4.3093     0.0000    14.0000 </r>
       <r>    -4.2661     0.0000    14.0000 </r>
       <r>    -4.2230     0.8401    14.0362 </r>
       <r>    -4.1799   478.0119    34.6550 </r>
       <r>    -4.1367    65.6249    37.4856 </r>
       <r>    -4.0936    11.9329    38.0004 </r>
       <r>    -4.0505   157.2668    44.7840 </r>
       <r>    -4.0073    28.1921    46.0000 </r>
       <r>    -3.9642     0.0000    46.0000 </r>
       <r>    -3.9211     0.0000    46.0000 </r>
       <r>    -3.8779     0.0000    46.0000 </r>
       <r>    -3.8348     0.0000    46.0000 </r>
       <r>    -3.7917     0.0000    46.0000 </r>
       <r>    -3.7485     0.0000    46.0000 </r>
       <r>    -3.7054     0.0000    46.0000 </r>
       <r>    -3.6623     0.0000    46.0000 </r>
       <r>    -3.6191     0.0000    46.0000 </r>
       <r>    -3.5760     0.0000    46.0000 </r>
       <r>    -3.5328     0.0212    46.0009 </r>
       <r>    -3.4897   132.6949    51.7246 </r>
       <r>    -3.4466   234.3679    61.8339 </r>
       <r>    -3.4034     5.4714    62.0699 </r>
       <r>    -3.3603    44.7453    64.0000 </r>
       <r>    -3.3172     0.0004    64.0000 </r>
       <r>    -3.2740     0.0000    64.0000 </r>
       <r>    -3.2309     0.0000    64.0000 </r>
       <r>    -3.1878     0.0000    64.0000 </r>
       <r>    -3.1446     0.0000    64.0000 </r>
       <r>    -3.1015     0.0000    64.0000 </r>
       <r>    -3.0584     0.0000    64.0000 </r>
       <r>    -3.0152     0.0000    64.0000 </r>
       <r>    -2.9721     0.0000    64.0000 </r>
       <r>    -2.9290     0.0000    64.0000 </r>
       <r>    -2.8858     0.0000    64.0000 </r>
       <r>    -2.8427     0.0000    64.0000 </r>
       <r>    -2.7996     0.0000    64.0000 </r>
       <r>    -2.7564     0.0000    64.0000 </r>
       <r>    -2.7133     0.0000    64.0000 </r>
       <r>    -2.6702     0.0000    64.0000 </r>
       <r>    -2.6270     0.0000    64.0000 </r>
       <r>    -2.5839     0.0000    64.0000 </r>
       <r>    -2.5408     0.0000    64.0000 </r>
       <r>    -2.4976     0.0000    64.0000 </r>
       <r>    -2.4545     0.0000    64.0000 </r>
       <r>    -2.4114     0.0000    64.0000 </r>
       <r>    -2.3682     0.0000    64.0000 </r>
       <r>    -2.3251     0.0000    64.0000 </r>
       <r>    -2.2820     0.0000    64.0000 </r>
       <r>    -2.2388     0.0000    64.0000 </r>
       <r>    -2.1957     0.0000    64.0000 </r>
       <r>    -2.1526     0.0000    64.0000 </r>
       <r>    -2.1094     0.0000    64.0000 </r>
       <r>    -2.0663     0.0000    64.0000 </r>
       <r>    -2.0231     0.0000    64.0000 </r>
       <r>    -1.9800     0.0000    64.0000 </r>
       <r>    -1.9369     0.0000    64.0000 </r>
       <r>    -1.8937     0.0000    64.0000 </r>
       <r>    -1.8506     0.0000    64.0000 </r>
       <r>    -1.8075     0.0000    64.0000 </r>
       <r>    -1.7643     0.0000    64.0000 </r>
       <r>    -1.7212     0.0000    64.0000 </r>
       <r>    -1.6781     0.0000    64.0000 </r>
       <r>    -1.6349     0.0000    64.0000 </r>
       <r>    -1.5918     0.0000    64.0000 </r>
       <r>    -1.5487     0.0000    64.0000 </r>
       <r>    -1.5055     0.0000    64.0000 </r>
       <r>    -1.4624     0.0000    64.0000 </r>
       <r>    -1.4193     0.0000    64.0000 </r>
       <r>    -1.3761     0.0000    64.0000 </r>
       <r>    -1.3330     0.0000    64.0000 </r>
       <r>    -1.2899     0.0000    64.0000 </r>
       <r>    -1.2467     0.0000    64.0000 </r>
       <r>    -1.2036     3.4367    64.1482 </r>
       <r>    -1.1605    92.6427    68.1443 </r>
       <r>    -1.1173    89.3878    72.0000 </r>
       <r>    -1.0742     0.0000    72.0000 </r>
       <r>    -1.0311     0.0000    72.0000 </r>
       <r>    -0.9879     0.0000    72.0000 </r>
       <r>    -0.9448     0.0000    72.0000 </r>
       <r>    -0.9017     0.0000    72.0000 </r>
       <r>    -0.8585     2.6989    72.1164 </r>
       <r>    -0.8154   136.3976    77.9998 </r>
       <r>    -0.7723     0.0038    78.0000 </r>
       <r>    -0.7291     0.0000    78.0000 </r>
       <r>    -0.6860     0.0000    78.0000 </r>
       <r>    -0.6428     0.0000    78.0000 </r>
       <r>    -0.5997     0.0000    78.0000 </r>
       <r>    -0.5566     0.0000    78.0000 </r>
       <r>    -0.5134     0.0000    78.0000 </r>
       <r>    -0.4703     0.0000    78.0000 </r>
       <r>    -0.4272     0.0000    78.0000 </r>
       <r>    -0.3840     0.0000    78.0000 </r>
       <r>    -0.3409     0.0000    78.0000 </r>
       <r>    -0.2978     0.0000    78.0000 </r>
       <r>    -0.2546     0.0000    78.0000 </r>
       <r>    -0.2115     0.0000    78.0000 </r>
       <r>    -0.1684     0.0000    78.0000 </r>
       <r>    -0.1252     0.0000    78.0000 </r>
       <r>    -0.0821     0.0000    78.0000 </r>
       <r>    -0.0390   147.2893    84.3532 </r>
       <r>     0.0042   422.4769   102.5765 </r>
       <r>     0.0473   380.4676   118.9877 </r>
       <r>     0.0904   162.5265   125.9982 </r>
       <r>     0.1336     0.0426   126.0000 </r>
       <r>     0.1767     0.0000   126.0000 </r>
       <r>     0.2198     0.0000   126.0000 </r>
       <r>     0.2630     0.0000   126.0000 </r>
       <r>     0.3061     0.0000   126.0000 </r>
       <r>     0.3492     0.0000   126.0000 </r>
       <r>     0.3924     0.0000   126.0000 </r>
       <r>     0.4355     0.0000   126.0000 </r>
       <r>     0.4786     0.0000   126.0000 </r>
       <r>     0.5218     0.0000   126.0000 </r>
       <r>     0.5649     0.0000   126.0000 </r>
       <r>     0.6080     0.0000   126.0000 </r>
       <r>     0.6512     0.0000   126.0000 </r>
       <r>     0.6943     0.0000   126.0000 </r>
       <r>     0.7374     0.0213   126.0009 </r>
       <r>     0.7806   183.7538   133.9270 </r>
       <r>     0.8237   372.3219   149.9869 </r>
       <r>     0.8669     0.3045   150.0000 </r>
       <r>     0.9100     4.9335   150.2128 </r>
       <r>     0.9531   203.2981   158.9819 </r>
       <r>     0.9963    69.9692   162.0000 </r>
       <r>     1.0394     0.0000   162.0000 </r>
       <r>     1.0825     0.0000   162.0000 </r>
       <r>     1.1257     0.0000   162.0000 </r>
       <r>     1.1688    54.7999   164.3638 </r>
       <r>     1.2119   178.7793   172.0753 </r>
       <r>     1.2551    44.6212   174.0000 </r>
       <r>     1.2982     0.0004   174.0000 </r>
       <r>     1.3413     0.0000   174.0000 </r>
       <r>     1.3845     0.0000   174.0000 </r>
       <r>     1.4276     0.0000   174.0000 </r>
       <r>     1.4707     0.0000   174.0000 </r>
       <r>     1.5139     0.0000   174.0000 </r>
       <r>     1.5570     0.0000   174.0000 </r>
       <r>     1.6001     0.0000   174.0000 </r>
       <r>     1.6433    36.8555   175.5897 </r>
       <r>     1.6864   241.3451   186.0000 </r>
       <r>     1.7295     0.0001   186.0000 </r>
       <r>     1.7727     0.0000   186.0000 </r>
       <r>     1.8158     0.0000   186.0000 </r>
       <r>     1.8589     0.0000   186.0000 </r>
       <r>     1.9021     0.0000   186.0000 </r>
       <r>     1.9452     0.0000   186.0000 </r>
       <r>     1.9883     0.0000   186.0000 </r>
       <r>     2.0315     0.0000   186.0000 </r>
       <r>     2.0746     0.0000   186.0000 </r>
       <r>     2.1177     0.0000   186.0000 </r>
       <r>     2.1609     0.0000   186.0000 </r>
       <r>     2.2040     0.0000   186.0000 </r>
       <r>     2.2472     0.0000   186.0000 </r>
       <r>     2.2903     0.0002   186.0000 </r>
       <r>     2.3334   298.5249   198.8767 </r>
       <r>     2.3766   154.1041   205.5239 </r>
       <r>     2.4197   103.7723   210.0000 </r>
       <r>     2.4628     0.0000   210.0000 </r>
       <r>     2.5060     0.0000   210.0000 </r>
       <r>     2.5491     0.0000   210.0000 </r>
       <r>     2.5922     0.0000   210.0000 </r>
       <r>     2.6354     0.0000   210.0000 </r>
       <r>     2.6785     0.0000   210.0000 </r>
       <r>     2.7216     0.0000   210.0000 </r>
       <r>     2.7648    59.6068   212.5711 </r>
       <r>     2.8079   357.0934   227.9741 </r>
       <r>     2.8510   140.4935   234.0342 </r>
       <r>     2.8942   155.9203   240.7597 </r>
       <r>     2.9373    75.1215   244.0000 </r>
       <r>     2.9804    75.6954   247.2651 </r>
       <r>     3.0236    63.4049   250.0000 </r>
       <r>     3.0667     0.0000   250.0000 </r>
       <r>     3.1098     0.0000   250.0000 </r>
       <r>     3.1530     0.0000   250.0000 </r>
       <r>     3.1961     0.0000   250.0000 </r>
       <r>     3.2392     0.0000   250.0000 </r>
       <r>     3.2824     0.0000   250.0000 </r>
       <r>     3.3255     0.0000   250.0000 </r>
       <r>     3.3686     0.0000   250.0000 </r>
       <r>     3.4118     0.0000   250.0000 </r>
       <r>     3.4549     0.0000   250.0000 </r>
       <r>     3.4980     0.0000   250.0000 </r>
       <r>     3.5412     0.0000   250.0000 </r>
       <r>     3.5843     0.0000   250.0000 </r>
       <r>     3.6274   112.4918   254.8523 </r>
       <r>     3.6706    26.6085   256.0000 </r>
       <r>     3.7137     0.0000   256.0000 </r>
       <r>     3.7569    38.3625   257.6547 </r>
       <r>     3.8000    84.6438   261.3058 </r>
       <r>     3.8431    16.0940   262.0000 </r>
       <r>     3.8863     0.0000   262.0000 </r>
       <r>     3.9294     0.0918   262.0040 </r>
       <r>     3.9725   138.7392   267.9884 </r>
       <r>     4.0157     0.2693   268.0000 </r>
       <r>     4.0588     0.0000   268.0000 </r>
       <r>     4.1019     0.0000   268.0000 </r>
       <r>     4.1451     0.0000   268.0000 </r>
       <r>     4.1882     0.0000   268.0000 </r>
       <r>     4.2313     0.0000   268.0000 </r>
       <r>     4.2745     0.0000   268.0000 </r>
       <r>     4.3176     0.0000   268.0000 </r>
       <r>     4.3607     0.0000   268.0000 </r>
       <r>     4.4039     0.0000   268.0000 </r>
       <r>     4.4470     0.0000   268.0000 </r>
       <r>     4.4901     0.0000   268.0000 </r>
       <r>     4.5333     0.0000   268.0000 </r>
       <r>     4.5764     0.0000   268.0000 </r>
       <r>     4.6195     0.0000   268.0000 </r>
       <r>     4.6627     0.0000   268.0000 </r>
       <r>     4.7058     0.1363   268.0059 </r>
       <r>     4.7489   104.2927   272.5045 </r>
       <r>     4.7921   174.3291   280.0240 </r>
       <r>     4.8352   146.0096   286.3221 </r>
       <r>     4.8783    38.9003   288.0000 </r>
       <r>     4.9215     0.0000   288.0000 </r>
       <r>     4.9646     0.0000   288.0000 </r>
       <r>     5.0077     0.0000   288.0000 </r>
       <r>     5.0509     0.0000   288.0000 </r>
       <r>     5.0940     0.0000   288.0000 </r>
       <r>     5.1371     0.0000   288.0000 </r>
       <r>     5.1803     0.0000   288.0000 </r>
       <r>     5.2234     0.0000   288.0000 </r>
       <r>     5.2666     0.0000   288.0000 </r>
       <r>     5.3097    80.8655   291.4881 </r>
       <r>     5.3528   342.7021   306.2703 </r>
       <r>     5.3960   318.1669   319.9942 </r>
       <r>     5.4391    68.3366   322.9419 </r>
       <r>     5.4822    24.5311   324.0000 </r>
       <r>     5.5254    16.6873   324.7198 </r>
       <r>     5.5685    29.6795   326.0000 </r>
       <r>     5.6116     0.0000   326.0000 </r>
       <r>     5.6548     0.0000   326.0000 </r>
       <r>     5.6979     0.0000   326.0000 </r>
       <r>     5.7410     0.0000   326.0000 </r>
       <r>     5.7842     0.0000   326.0000 </r>
       <r>     5.8273     0.0000   326.0000 </r>
       <r>     5.8704     0.0000   326.0000 </r>
       <r>     5.9136     0.0000   326.0000 </r>
       <r>     5.9567     0.0000   326.0000 </r>
       <r>     5.9998     0.0000   326.0000 </r>
       <r>     6.0430     0.0000   326.0000 </r>
       <r>     6.0861   124.7459   331.3808 </r>
       <r>     6.1292   154.4961   338.0449 </r>
       <r>     6.1724   230.6986   347.9959 </r>
       <r>     6.2155     0.0943   348.0000 </r>
       <r>     6.2586   113.9461   352.9150 </r>
       <r>     6.3018    71.5184   355.9999 </r>
       <r>     6.3449     0.0024   356.0000 </r>
       <r>     6.3880     0.0000   356.0000 </r>
       <r>     6.4312     0.0000   356.0000 </r>
       <r>     6.4743     0.0000   356.0000 </r>
       <r>     6.5174     0.0000   356.0000 </r>
       <r>     6.5606     0.0000   356.0000 </r>
       <r>     6.6037     0.0000   356.0000 </r>
       <r>     6.6469     0.0000   356.0000 </r>
       <r>     6.6900     0.0000   356.0000 </r>
       <r>     6.7331     0.0000   356.0000 </r>
       <r>     6.7763     0.0000   356.0000 </r>
       <r>     6.8194     0.0000   356.0000 </r>
       <r>     6.8625     0.0000   356.0000 </r>
      </set>
     </set>
    </array>
   </total>
  </dos>
 </calculation>
 <structure name="finalpos" >
  <crystal>
   <varray name="basis" >
    <v>      12.74739769       0.00000000       0.00000000 </v>
    <v>       0.00000000      12.74739769       0.00000000 </v>
    <v>       0.00000000       0.00000000      12.74739769 </v>
   </varray>
   <i name="volume">   2071.40301882 </i>
   <varray name="rec_basis" >
    <v>       0.07844738       0.00000000       0.00000000 </v>
    <v>       0.00000000       0.07844738       0.00000000 </v>
    <v>       0.00000000       0.00000000       0.07844738 </v>
   </varray>
  </crystal>
  <varray name="positions" >
   <v>       0.00000000       0.00000000       0.00000000 </v>
   <v>       0.50000000       0.00000000       0.00000000 </v>
   <v>       0.00000000       0.50000000       0.00000000 </v>
   <v>       0.50000000       0.50000000       0.00000000 </v>
   <v>       0.00000000       0.00000000       0.50000000 </v>
   <v>       0.50000000       0.00000000       0.50000000 </v>
   <v>       0.00000000       0.50000000       0.50000000 </v>
   <v>       0.50000000       0.50000000       0.50000000 </v>
   <v>       0.25140293       0.25140293       0.00000000 </v>
   <v>       0.74859707       0.25140293       0.00000000 </v>
   <v>       0.25140293       0.74859707       0.00000000 </v>
   <v>       0.74859707       0.74859707       0.00000000 </v>
   <v>       0.25012668       0.25012668       0.50000000 </v>
   <v>       0.74987332       0.25012668       0.50000000 </v>
   <v>       0.25012668       0.74987332       0.50000000 </v>
   <v>       0.74987332       0.74987332       0.50000000 </v>
   <v>       0.25140293       0.00000000       0.25140293 </v>
   <v>       0.74859707       0.00000000       0.25140293 </v>
   <v>       0.25012668       0.50000000       0.25012668 </v>
   <v>       0.74987332       0.50000000       0.25012668 </v>
   <v>       0.25140293       0.00000000       0.74859707 </v>
   <v>       0.74859707       0.00000000       0.74859707 </v>
   <v>       0.25012668       0.50000000       0.74987332 </v>
   <v>       0.74987332       0.50000000       0.74987332 </v>
   <v>       0.00000000       0.25140293       0.25140293 </v>
   <v>       0.50000000       0.25012668       0.25012668 </v>
   <v>       0.00000000       0.74859707       0.25140293 </v>
   <v>       0.50000000       0.74987332       0.25012668 </v>
   <v>       0.00000000       0.25140293       0.74859707 </v>
   <v>       0.50000000       0.25012668       0.74987332 </v>
   <v>       0.00000000       0.74859707       0.74859707 </v>
   <v>       0.50000000       0.74987332       0.74987332 </v>
   <v>       0.12960836       0.12960836       0.12960836 </v>
   <v>       0.62421357       0.12507203       0.12507203 </v>
   <v>       0.12507203       0.62421357       0.12507203 </v>
   <v>       0.62455273       0.62455273       0.12547987 </v>
   <v>       0.12507203       0.12507203       0.62421357 </v>
   <v>       0.62455273       0.12469540       0.62455273 </v>
   <v>       0.12469540       0.62455273       0.62455273 </v>
   <v>       0.62508239       0.62508239       0.62508239 </v>
   <v>       0.37578643       0.12507203       0.12507203 </v>
   <v>       0.87039164       0.12960836       0.12960836 </v>
   <v>       0.37544727       0.62455273       0.12469540 </v>
   <v>       0.87492797       0.62421357       0.12507203 </v>
   <v>       0.37544727       0.12469540       0.62455273 </v>
   <v>       0.87492797       0.12507203       0.62421357 </v>
   <v>       0.37491761       0.62508239       0.62508239 </v>
   <v>       0.87530460       0.62455273       0.62455273 </v>
   <v>       0.12507203       0.37578643       0.12507203 </v>
   <v>       0.62455273       0.37544727       0.12469540 </v>
   <v>       0.12960836       0.87039164       0.12960836 </v>
   <v>       0.62421357       0.87492797       0.12507203 </v>
   <v>       0.12469540       0.37544727       0.62455273 </v>
   <v>       0.62508239       0.37491761       0.62508239 </v>
   <v>       0.12507203       0.87492797       0.62421357 </v>
   <v>       0.62455273       0.87530460       0.62455273 </v>
   <v>       0.37544727       0.37544727       0.12469540 </v>
   <v>       0.87492797       0.37578643       0.12507203 </v>
   <v>       0.37578643       0.87492797       0.12507203 </v>
   <v>       0.87039164       0.87039164       0.12960836 </v>
   <v>       0.37491761       0.37491761       0.62508239 </v>
   <v>       0.87530460       0.37544727       0.62455273 </v>
   <v>       0.37544727       0.87530460       0.62455273 </v>
   <v>       0.87492797       0.87492797       0.62421357 </v>
   <v>       0.12507203       0.12507203       0.37578643 </v>
   <v>       0.62455273       0.12469540       0.37544727 </v>
   <v>       0.12469540       0.62455273       0.37544727 </v>
   <v>       0.62508239       0.62508239       0.37491761 </v>
   <v>       0.12960836       0.12960836       0.87039164 </v>
   <v>       0.62421357       0.12507203       0.87492797 </v>
   <v>       0.12507203       0.62421357       0.87492797 </v>
   <v>       0.62455273       0.62455273       0.87530460 </v>
   <v>       0.37544727       0.12469540       0.37544727 </v>
   <v>       0.87492797       0.12507203       0.37578643 </v>
   <v>       0.37491761       0.62508239       0.37491761 </v>
   <v>       0.87530460       0.62455273       0.37544727 </v>
   <v>       0.37578643       0.12507203       0.87492797 </v>
   <v>       0.87039164       0.12960836       0.87039164 </v>
   <v>       0.37544727       0.62455273       0.87530460 </v>
   <v>       0.87492797       0.62421357       0.87492797 </v>
   <v>       0.12469540       0.37544727       0.37544727 </v>
   <v>       0.62508239       0.37491761       0.37491761 </v>
   <v>       0.12507203       0.87492797       0.37578643 </v>
   <v>       0.62455273       0.87530460       0.37544727 </v>
   <v>       0.12507203       0.37578643       0.87492797 </v>
   <v>       0.62455273       0.37544727       0.87530460 </v>
   <v>       0.12960836       0.87039164       0.87039164 </v>
   <v>       0.62421357       0.87492797       0.87492797 </v>
   <v>       0.37491761       0.37491761       0.37491761 </v>
   <v>       0.87530460       0.37544727       0.37544727 </v>
   <v>       0.37544727       0.87530460       0.37544727 </v>
   <v>       0.87492797       0.87492797       0.37578643 </v>
   <v>       0.37544727       0.37544727       0.87530460 </v>
   <v>       0.87492797       0.37578643       0.87492797 </v>
   <v>       0.37578643       0.87492797       0.87492797 </v>
   <v>       0.87039164       0.87039164       0.87039164 </v>
  </varray>
 </structure>
</modeling>
