<?xml version="1.0" encoding="ISO-8859-1"?>
<modeling>
 <generator>
  <i name="program" type="string">vasp </i>
  <i name="version" type="string">5.4.4.18Apr17-6-g9f103f2a35  </i>
  <i name="subversion" type="string">(build Apr 28 2017 11:12:57) complex            parallel </i>
  <i name="platform" type="string">LinuxIFC </i>
  <i name="date" type="string">2018 06 27 </i>
  <i name="time" type="string">23:27:30 </i>
 </generator>
 <incar>
  <i type="string" name="PREC">accurate</i>
  <i type="int" name="IALGO">    38</i>
  <i type="int" name="IBRION">    -1</i>
  <i name="EDIFF">      0.00000001</i>
  <i type="int" name="ISYM">     0</i>
  <i name="ENCUT">    270.00000000</i>
  <i type="logical" name="LREAL"> F  </i>
  <i type="int" name="ISMEAR">     0</i>
  <i name="SIGMA">      0.01000000</i>
  <i type="logical" name="LWAVE"> F  </i>
  <i type="logical" name="LCHARG"> F  </i>
  <v type="int" name="KPOINT_BSE">    -1     0     0     0</v>
 </incar>
 <structure name="primitive_cell" >
  <crystal>
   <varray name="basis" >
    <v>      12.74739769       0.00000000       0.00000000 </v>
    <v>       0.00000000      12.74739769       0.00000000 </v>
    <v>       0.00000000       0.00000000      12.74739769 </v>
   </varray>
   <i name="volume">   2071.40301882 </i>
   <varray name="rec_basis" >
    <v>       0.07844738       0.00000000       0.00000000 </v>
    <v>       0.00000000       0.07844738       0.00000000 </v>
    <v>       0.00000000       0.00000000       0.07844738 </v>
   </varray>
  </crystal>
  <varray name="positions" >
   <v>       0.00000000       0.00000000       0.00000000 </v>
   <v>       0.12960836       0.12960836       0.12960836 </v>
   <v>      -0.12960836       0.12960836       0.12960836 </v>
   <v>       0.12960836      -0.12960836       0.12960836 </v>
   <v>      -0.12960836      -0.12960836       0.12960836 </v>
   <v>       0.12960836       0.12960836      -0.12960836 </v>
   <v>      -0.12960836       0.12960836      -0.12960836 </v>
   <v>       0.12960836      -0.12960836      -0.12960836 </v>
   <v>      -0.12960836      -0.12960836      -0.12960836 </v>
   <v>       0.25084822       0.25140293      -0.00055471 </v>
   <v>      -0.25140293       0.25140293       0.00000000 </v>
   <v>       0.25140293      -0.25140293       0.00000000 </v>
   <v>      -0.25140293      -0.25140293       0.00000000 </v>
   <v>       0.25140293       0.00000000       0.25140293 </v>
   <v>      -0.25140293       0.00000000       0.25140293 </v>
   <v>       0.25140293       0.00000000      -0.25140293 </v>
   <v>      -0.25140293       0.00000000      -0.25140293 </v>
   <v>       0.00000000       0.25140293       0.25140293 </v>
   <v>       0.00000000      -0.25140293       0.25140293 </v>
   <v>       0.00000000       0.25140293      -0.25140293 </v>
   <v>       0.00000000      -0.25140293      -0.25140293 </v>
   <v>      -0.37578643       0.12507203       0.12507203 </v>
   <v>       0.12507203      -0.37578643       0.12507203 </v>
   <v>       0.12507203       0.12507203      -0.37578643 </v>
   <v>       0.37578643       0.12507203       0.12507203 </v>
   <v>      -0.12507203      -0.37578643       0.12507203 </v>
   <v>      -0.12507203       0.12507203      -0.37578643 </v>
   <v>       0.12507203       0.37578643       0.12507203 </v>
   <v>      -0.37578643      -0.12507203       0.12507203 </v>
   <v>       0.12507203      -0.12507203      -0.37578643 </v>
   <v>      -0.12507203       0.37578643       0.12507203 </v>
   <v>       0.37578643      -0.12507203       0.12507203 </v>
   <v>      -0.12507203      -0.12507203      -0.37578643 </v>
   <v>       0.12507203       0.12507203       0.37578643 </v>
   <v>      -0.37578643       0.12507203      -0.12507203 </v>
   <v>       0.12507203      -0.37578643      -0.12507203 </v>
   <v>      -0.12507203       0.12507203       0.37578643 </v>
   <v>       0.37578643       0.12507203      -0.12507203 </v>
   <v>      -0.12507203      -0.37578643      -0.12507203 </v>
   <v>       0.12507203      -0.12507203       0.37578643 </v>
   <v>       0.12507203       0.37578643      -0.12507203 </v>
   <v>      -0.37578643      -0.12507203      -0.12507203 </v>
   <v>      -0.12507203      -0.12507203       0.37578643 </v>
   <v>      -0.12507203       0.37578643      -0.12507203 </v>
   <v>       0.37578643      -0.12507203      -0.12507203 </v>
   <v>      -0.50000000       0.00000000       0.00000000 </v>
   <v>       0.00000000      -0.50000000       0.00000000 </v>
   <v>       0.00000000       0.00000000      -0.50000000 </v>
   <v>      -0.37544727      -0.37544727       0.12469540 </v>
   <v>      -0.37544727       0.12469540      -0.37544727 </v>
   <v>       0.12469540      -0.37544727      -0.37544727 </v>
   <v>       0.37544727      -0.37544727       0.12469540 </v>
   <v>       0.37544727       0.12469540      -0.37544727 </v>
   <v>      -0.12469540      -0.37544727      -0.37544727 </v>
   <v>      -0.37544727       0.37544727       0.12469540 </v>
   <v>       0.12469540       0.37544727      -0.37544727 </v>
   <v>      -0.37544727      -0.12469540      -0.37544727 </v>
   <v>       0.37544727       0.37544727       0.12469540 </v>
   <v>      -0.12469540       0.37544727      -0.37544727 </v>
   <v>       0.37544727      -0.12469540      -0.37544727 </v>
   <v>      -0.37544727       0.12469540       0.37544727 </v>
   <v>       0.12469540      -0.37544727       0.37544727 </v>
   <v>      -0.37544727      -0.37544727      -0.12469540 </v>
   <v>       0.37544727       0.12469540       0.37544727 </v>
   <v>      -0.12469540      -0.37544727       0.37544727 </v>
   <v>       0.37544727      -0.37544727      -0.12469540 </v>
   <v>       0.12469540       0.37544727       0.37544727 </v>
   <v>      -0.37544727      -0.12469540       0.37544727 </v>
   <v>      -0.37544727       0.37544727      -0.12469540 </v>
   <v>      -0.12469540       0.37544727       0.37544727 </v>
   <v>       0.37544727      -0.12469540       0.37544727 </v>
   <v>       0.37544727       0.37544727      -0.12469540 </v>
   <v>       0.25012668       0.25012668      -0.50000000 </v>
   <v>      -0.25012668       0.25012668      -0.50000000 </v>
   <v>       0.25012668      -0.25012668      -0.50000000 </v>
   <v>      -0.25012668      -0.25012668      -0.50000000 </v>
   <v>       0.25012668      -0.50000000       0.25012668 </v>
   <v>      -0.25012668      -0.50000000       0.25012668 </v>
   <v>       0.25012668      -0.50000000      -0.25012668 </v>
   <v>      -0.25012668      -0.50000000      -0.25012668 </v>
   <v>      -0.50000000       0.25012668       0.25012668 </v>
   <v>      -0.50000000      -0.25012668       0.25012668 </v>
   <v>      -0.50000000       0.25012668      -0.25012668 </v>
   <v>      -0.50000000      -0.25012668      -0.25012668 </v>
   <v>      -0.37491761      -0.37491761      -0.37491761 </v>
   <v>       0.37491761      -0.37491761      -0.37491761 </v>
   <v>      -0.37491761       0.37491761      -0.37491761 </v>
   <v>       0.37491761       0.37491761      -0.37491761 </v>
   <v>      -0.37491761      -0.37491761       0.37491761 </v>
   <v>       0.37491761      -0.37491761       0.37491761 </v>
   <v>      -0.37491761       0.37491761       0.37491761 </v>
   <v>       0.37491761       0.37491761       0.37491761 </v>
   <v>      -0.50000000      -0.50000000       0.00000000 </v>
   <v>      -0.50000000       0.00000000      -0.50000000 </v>
   <v>       0.00000000      -0.50000000      -0.50000000 </v>
   <v>      -0.50000000      -0.50000000      -0.50000000 </v>
  </varray>
 </structure>
 <varray name="primitive_index" >
  <v type="int" >        1 </v>
  <v type="int" >       33 </v>
  <v type="int" >       42 </v>
  <v type="int" >       51 </v>
  <v type="int" >       60 </v>
  <v type="int" >       69 </v>
  <v type="int" >       78 </v>
  <v type="int" >       87 </v>
  <v type="int" >       96 </v>
  <v type="int" >        9 </v>
  <v type="int" >       10 </v>
  <v type="int" >       11 </v>
  <v type="int" >       12 </v>
  <v type="int" >       17 </v>
  <v type="int" >       18 </v>
  <v type="int" >       21 </v>
  <v type="int" >       22 </v>
  <v type="int" >       25 </v>
  <v type="int" >       27 </v>
  <v type="int" >       29 </v>
  <v type="int" >       31 </v>
  <v type="int" >       34 </v>
  <v type="int" >       35 </v>
  <v type="int" >       37 </v>
  <v type="int" >       41 </v>
  <v type="int" >       44 </v>
  <v type="int" >       46 </v>
  <v type="int" >       49 </v>
  <v type="int" >       52 </v>
  <v type="int" >       55 </v>
  <v type="int" >       58 </v>
  <v type="int" >       59 </v>
  <v type="int" >       64 </v>
  <v type="int" >       65 </v>
  <v type="int" >       70 </v>
  <v type="int" >       71 </v>
  <v type="int" >       74 </v>
  <v type="int" >       77 </v>
  <v type="int" >       80 </v>
  <v type="int" >       83 </v>
  <v type="int" >       85 </v>
  <v type="int" >       88 </v>
  <v type="int" >       92 </v>
  <v type="int" >       94 </v>
  <v type="int" >       95 </v>
  <v type="int" >        2 </v>
  <v type="int" >        3 </v>
  <v type="int" >        5 </v>
  <v type="int" >       36 </v>
  <v type="int" >       38 </v>
  <v type="int" >       39 </v>
  <v type="int" >       43 </v>
  <v type="int" >       45 </v>
  <v type="int" >       48 </v>
  <v type="int" >       50 </v>
  <v type="int" >       53 </v>
  <v type="int" >       56 </v>
  <v type="int" >       57 </v>
  <v type="int" >       62 </v>
  <v type="int" >       63 </v>
  <v type="int" >       66 </v>
  <v type="int" >       67 </v>
  <v type="int" >       72 </v>
  <v type="int" >       73 </v>
  <v type="int" >       76 </v>
  <v type="int" >       79 </v>
  <v type="int" >       81 </v>
  <v type="int" >       84 </v>
  <v type="int" >       86 </v>
  <v type="int" >       90 </v>
  <v type="int" >       91 </v>
  <v type="int" >       93 </v>
  <v type="int" >       13 </v>
  <v type="int" >       14 </v>
  <v type="int" >       15 </v>
  <v type="int" >       16 </v>
  <v type="int" >       19 </v>
  <v type="int" >       20 </v>
  <v type="int" >       23 </v>
  <v type="int" >       24 </v>
  <v type="int" >       26 </v>
  <v type="int" >       28 </v>
  <v type="int" >       30 </v>
  <v type="int" >       32 </v>
  <v type="int" >       40 </v>
  <v type="int" >       47 </v>
  <v type="int" >       54 </v>
  <v type="int" >       61 </v>
  <v type="int" >       68 </v>
  <v type="int" >       75 </v>
  <v type="int" >       82 </v>
  <v type="int" >       89 </v>
  <v type="int" >        4 </v>
  <v type="int" >        6 </v>
  <v type="int" >        7 </v>
  <v type="int" >        8 </v>
 </varray>
 <kpoints>
  <generation param="Gamma">
   <v type="int" name="divisions">       1        1        1 </v>
   <v name="usershift">      0.00000000       0.00000000       0.00000000 </v>
   <v name="genvec1">      1.00000000       0.00000000       0.00000000 </v>
   <v name="genvec2">      0.00000000       1.00000000       0.00000000 </v>
   <v name="genvec3">      0.00000000       0.00000000       1.00000000 </v>
   <v name="shift">      0.00000000       0.00000000       0.00000000 </v>
  </generation>
  <varray name="kpointlist" >
   <v>       0.00000000       0.00000000       0.00000000 </v>
  </varray>
  <varray name="weights" >
   <v>       1.00000000 </v>
  </varray>
 </kpoints>
 <parameters>
  <separator name="general" >
   <i type="string" name="SYSTEM">unknown system</i>
   <i type="logical" name="LCOMPAT"> F  </i>
  </separator>
  <separator name="electronic" >
   <i type="string" name="PREC">accura</i>
   <i name="ENMAX">    270.00000000</i>
   <i name="ENAUG">    454.73400000</i>
   <i name="EDIFF">      0.00000001</i>
   <i type="int" name="IALGO">    38</i>
   <i type="int" name="IWAVPR">    10</i>
   <i type="int" name="NBANDS">   178</i>
   <i name="NELECT">    256.00000000</i>
   <i type="int" name="TURBO">     0</i>
   <i type="int" name="IRESTART">     0</i>
   <i type="int" name="NREBOOT">     0</i>
   <i type="int" name="NMIN">     0</i>
   <i name="EREF">      0.00000000</i>
   <separator name="electronic smearing" >
    <i type="int" name="ISMEAR">     0</i>
    <i name="SIGMA">      0.01000000</i>
    <i name="KSPACING">      0.50000000</i>
    <i type="logical" name="KGAMMA"> T  </i>
   </separator>
   <separator name="electronic projectors" >
    <i type="logical" name="LREAL"> F  </i>
    <v name="ROPT">      0.00000000      0.00000000      0.00000000</v>
    <i type="int" name="LMAXPAW">  -100</i>
    <i type="int" name="LMAXMIX">     2</i>
    <i type="logical" name="NLSPLINE"> F  </i>
   </separator>
   <separator name="electronic startup" >
    <i type="int" name="ISTART">     0</i>
    <i type="int" name="ICHARG">     2</i>
    <i type="int" name="INIWAV">     1</i>
   </separator>
   <separator name="electronic spin" >
    <i type="int" name="ISPIN">     1</i>
    <i type="logical" name="LNONCOLLINEAR"> F  </i>
    <v name="MAGMOM">      1.00000000      1.00000000      1.00000000      1.00000000      1.00000000      1.00000000      1.00000000      1.00000000      1.00000000      1.00000000      1.00000000      1.00000000      1.00000000      1.00000000      1.00000000      1.00000000      1.00000000      1.00000000      1.00000000      1.00000000
      1.00000000      1.00000000      1.00000000      1.00000000      1.00000000      1.00000000      1.00000000      1.00000000      1.00000000      1.00000000      1.00000000      1.00000000      1.00000000      1.00000000      1.00000000      1.00000000      1.00000000      1.00000000      1.00000000      1.00000000
      1.00000000      1.00000000      1.00000000      1.00000000      1.00000000      1.00000000      1.00000000      1.00000000      1.00000000      1.00000000      1.00000000      1.00000000      1.00000000      1.00000000      1.00000000      1.00000000      1.00000000      1.00000000      1.00000000      1.00000000
      1.00000000      1.00000000      1.00000000      1.00000000      1.00000000      1.00000000      1.00000000      1.00000000      1.00000000      1.00000000      1.00000000      1.00000000      1.00000000      1.00000000      1.00000000      1.00000000      1.00000000      1.00000000      1.00000000      1.00000000
      1.00000000      1.00000000      1.00000000      1.00000000      1.00000000      1.00000000      1.00000000      1.00000000      1.00000000      1.00000000      1.00000000      1.00000000      1.00000000      1.00000000      1.00000000      1.00000000</v>
    <i name="NUPDOWN">     -1.00000000</i>
    <i type="logical" name="LSORBIT"> F  </i>
    <v name="SAXIS">      0.00000000      0.00000000      1.00000000</v>
    <i type="logical" name="LSPIRAL"> F  </i>
    <v name="QSPIRAL">      0.00000000      0.00000000      0.00000000</v>
    <i type="logical" name="LZEROZ"> F  </i>
   </separator>
   <separator name="electronic exchange-correlation" >
    <i type="logical" name="LASPH"> F  </i>
    <i type="logical" name="LMETAGGA"> F  </i>
   </separator>
   <separator name="electronic convergence" >
    <i type="int" name="NELM">    60</i>
    <i type="int" name="NELMDL">    -5</i>
    <i type="int" name="NELMIN">     2</i>
    <i name="ENINI">    270.00000000</i>
    <separator name="electronic convergence detail" >
     <i type="logical" name="LDIAG"> T  </i>
     <i type="logical" name="LSUBROT"> F  </i>
     <i name="WEIMIN">      0.00000000</i>
     <i name="EBREAK">      0.00000000</i>
     <i name="DEPER">      0.30000000</i>
     <i type="int" name="NRMM">     4</i>
     <i name="TIME">      0.40000000</i>
    </separator>
   </separator>
   <separator name="electronic mixer" >
    <i name="AMIX">      0.40000000</i>
    <i name="BMIX">      1.00000000</i>
    <i name="AMIN">      0.10000000</i>
    <i name="AMIX_MAG">      1.60000000</i>
    <i name="BMIX_MAG">      1.00000000</i>
    <separator name="electronic mixer details" >
     <i type="int" name="IMIX">     4</i>
     <i type="logical" name="MIXFIRST"> F  </i>
     <i type="int" name="MAXMIX">   -45</i>
     <i name="WC">    100.00000000</i>
     <i type="int" name="INIMIX">     1</i>
     <i type="int" name="MIXPRE">     1</i>
     <i type="int" name="MREMOVE">     5</i>
    </separator>
   </separator>
   <separator name="electronic dipolcorrection" >
    <i type="logical" name="LDIPOL"> F  </i>
    <i type="logical" name="LMONO"> F  </i>
    <i type="int" name="IDIPOL">     0</i>
    <i name="EPSILON">      1.00000000</i>
    <v name="DIPOL">   -100.00000000   -100.00000000   -100.00000000</v>
    <i name="EFIELD">      0.00000000</i>
   </separator>
  </separator>
  <separator name="grids" >
   <i type="int" name="NGX">    70</i>
   <i type="int" name="NGY">    70</i>
   <i type="int" name="NGZ">    70</i>
   <i type="int" name="NGXF">   140</i>
   <i type="int" name="NGYF">   140</i>
   <i type="int" name="NGZF">   140</i>
   <i type="logical" name="ADDGRID"> F  </i>
  </separator>
  <separator name="ionic" >
   <i type="int" name="NSW">     0</i>
   <i type="int" name="IBRION">    -1</i>
   <i type="int" name="MDALGO">     0</i>
   <i type="int" name="ISIF">     2</i>
   <i name="PSTRESS">      0.00000000</i>
   <i name="EDIFFG">      0.00000010</i>
   <i type="int" name="NFREE">     0</i>
   <i name="POTIM">      0.50000000</i>
   <i name="SMASS">     -3.00000000</i>
   <i name="SCALEE">      1.00000000</i>
  </separator>
  <separator name="ionic md" >
   <i name="TEBEG">      0.00010000</i>
   <i name="TEEND">      0.00010000</i>
   <i type="int" name="NBLOCK">     1</i>
   <i type="int" name="KBLOCK">     1</i>
   <i type="int" name="NPACO">   256</i>
   <i name="APACO">     16.00000000</i>
  </separator>
  <separator name="symmetry" >
   <i type="int" name="ISYM">     0</i>
   <i name="SYMPREC">      0.00001000</i>
  </separator>
  <separator name="dos" >
   <i type="int" name="LORBIT">     0</i>
   <v name="RWIGS">     -1.00000000     -1.00000000     -1.00000000</v>
   <i type="int" name="NEDOS">   301</i>
   <i name="EMIN">     10.00000000</i>
   <i name="EMAX">    -10.00000000</i>
   <i name="EFERMI">      0.00000000</i>
  </separator>
  <separator name="writing" >
   <i type="int" name="NWRITE">     2</i>
   <i type="logical" name="LWAVE"> F  </i>
   <i type="logical" name="LDOWNSAMPLE"> F  </i>
   <i type="logical" name="LCHARG"> F  </i>
   <i type="logical" name="LPARD"> F  </i>
   <i type="logical" name="LVTOT"> F  </i>
   <i type="logical" name="LVHAR"> F  </i>
   <i type="logical" name="LELF"> F  </i>
   <i type="logical" name="LOPTICS"> F  </i>
   <v name="STM">      0.00000000      0.00000000      0.00000000      0.00000000      0.00000000      0.00000000      0.00000000</v>
  </separator>
  <separator name="performance" >
   <i type="int" name="NPAR">     2</i>
   <i type="int" name="NSIM">     4</i>
   <i type="int" name="NBLK">    -1</i>
   <i type="logical" name="LPLANE"> T  </i>
   <i type="logical" name="LSCALAPACK"> T  </i>
   <i type="logical" name="LSCAAWARE"> F  </i>
   <i type="logical" name="LSCALU"> F  </i>
   <i type="logical" name="LASYNC"> F  </i>
   <i type="logical" name="LORBITALREAL"> F  </i>
  </separator>
  <separator name="miscellaneous" >
   <i type="int" name="IDIOT">     3</i>
   <i type="int" name="ISPECIAL">     0</i>
   <i type="logical" name="LMUSIC"> F  </i>
   <v name="POMASS">    118.71000000     28.08500000     24.30500000</v>
   <v name="DARWINR">      0.00000000      0.00000000      0.00000000</v>
   <v name="DARWINV">      1.00000000      1.00000000      1.00000000</v>
   <i type="logical" name="LCORR"> T  </i>
  </separator>
  <i type="logical" name="GGA_COMPAT"> T  </i>
  <i type="logical" name="LBERRY"> F  </i>
  <i type="int" name="ICORELEVEL">     0</i>
  <i type="logical" name="LDAU"> F  </i>
  <i type="int" name="I_CONSTRAINED_M">     0</i>
  <separator name="electronic exchange-correlation" >
   <i type="string" name="GGA">--</i>
   <i type="int" name="VOSKOWN">     0</i>
   <i type="logical" name="LHFCALC"> F  </i>
   <i type="string" name="PRECFOCK"></i>
   <i type="logical" name="LSYMGRAD"> F  </i>
   <i type="logical" name="LHFONE"> F  </i>
   <i type="logical" name="LRHFCALC"> F  </i>
   <i type="logical" name="LTHOMAS"> F  </i>
   <i type="logical" name="LMODELHF"> F  </i>
   <i name="ENCUT4O">     -1.00000000</i>
   <i type="int" name="EXXOEP">     0</i>
   <i type="int" name="FOURORBIT">     0</i>
   <i name="AEXX">      0.00000000</i>
   <i name="HFALPHA">      0.00000000</i>
   <i name="MCALPHA">      0.00000000</i>
   <i name="ALDAX">      1.00000000</i>
   <i name="AGGAX">      1.00000000</i>
   <i name="ALDAC">      1.00000000</i>
   <i name="AGGAC">      1.00000000</i>
   <i type="int" name="NKREDX">     1</i>
   <i type="int" name="NKREDY">     1</i>
   <i type="int" name="NKREDZ">     1</i>
   <i type="logical" name="SHIFTRED"> F  </i>
   <i type="logical" name="ODDONLY"> F  </i>
   <i type="logical" name="EVENONLY"> F  </i>
   <i type="int" name="LMAXFOCK">     0</i>
   <i type="int" name="NMAXFOCKAE">     0</i>
   <i type="logical" name="LFOCKAEDFT"> F  </i>
   <i name="HFSCREEN">      0.00000000</i>
   <i name="HFSCREENC">      0.00000000</i>
   <i type="int" name="NBANDSGWLOW">     0</i>
  </separator>
  <separator name="vdW DFT" >
   <i type="logical" name="LUSE_VDW"> F  </i>
   <i name="Zab_VDW">     -0.84910000</i>
   <i name="PARAM1">      0.12340000</i>
   <i name="PARAM2">      1.00000000</i>
   <i name="PARAM3">      0.00000000</i>
  </separator>
  <separator name="model GW" >
   <i type="int" name="MODEL_GW">     0</i>
   <i name="MODEL_EPS0">     12.94626887</i>
   <i name="MODEL_ALPHA">      1.00000000</i>
  </separator>
  <separator name="linear response parameters" >
   <i type="logical" name="LEPSILON"> F  </i>
   <i type="logical" name="LRPA"> F  </i>
   <i type="logical" name="LNABLA"> F  </i>
   <i type="logical" name="LVEL"> F  </i>
   <i type="int" name="KINTER">     0</i>
   <i name="CSHIFT">      0.10000000</i>
   <i name="OMEGAMAX">     -1.00000000</i>
   <i name="DEG_THRESHOLD">      0.00200000</i>
   <i name="RTIME">     -0.10000000</i>
   <i name="WPLASMAI">      0.00000000</i>
   <v name="DFIELD">      0.00000000      0.00000000      0.00000000</v>
   <v name="WPLASMA">      0.00000000      0.00000000      0.00000000      0.00000000      0.00000000      0.00000000      0.00000000      0.00000000      0.00000000</v>
  </separator>
  <separator name="orbital magnetization" >
   <i type="logical" name="NUCIND"> F  </i>
   <v name="MAGPOS">      0.00000000      0.00000000      0.00000000</v>
   <i type="logical" name="LNICSALL"> T  </i>
   <i type="logical" name="ORBITALMAG"> F  </i>
   <i type="logical" name="LMAGBLOCH"> F  </i>
   <i type="logical" name="LCHIMAG"> F  </i>
   <i type="logical" name="LGAUGE"> T  </i>
   <i type="int" name="MAGATOM">     0</i>
   <v name="MAGDIPOL">      0.00000000      0.00000000      0.00000000</v>
   <v name="AVECCONST">      0.00000000      0.00000000      0.00000000</v>
  </separator>
  <separator name="response functions" >
   <i type="logical" name="LADDER"> F  </i>
   <i type="logical" name="LRPAFORCE"> F  </i>
   <i type="logical" name="LFXC"> F  </i>
   <i type="logical" name="LHARTREE"> T  </i>
   <i type="int" name="IBSE">     0</i>
   <v type="int" name="KPOINT">    -1     0     0     0</v>
   <i type="logical" name="LTCTE"> F  </i>
   <i type="logical" name="LTETE"> F  </i>
   <i type="logical" name="LTRIPLET"> F  </i>
   <i type="logical" name="LFXCEPS"> F  </i>
   <i type="logical" name="LFXHEG"> F  </i>
   <i type="int" name="NATURALO">     2</i>
   <i type="logical" name="L2ORDER"> F  </i>
   <i type="logical" name="LMP2LT"> F  </i>
   <i type="logical" name="LUSEW"> F  </i>
   <i name="ENCUTGW">     -2.00000000</i>
   <i name="ENCUTGWSOFT">     -2.00000000</i>
   <i name="ENCUTLF">     -1.00000000</i>
   <i type="int" name="LMAXMP2">    -1</i>
   <i name="SCISSOR">      0.00000000</i>
   <i type="int" name="NOMEGA">     0</i>
   <i type="int" name="NOMEGAR">     0</i>
   <i type="int" name="NBANDSGW">    -1</i>
   <i type="int" name="NBANDSO">    -1</i>
   <i type="int" name="NBANDSV">    -1</i>
   <i type="int" name="NELM">     1</i>
   <i type="int" name="NELMHF">     1</i>
   <i type="int" name="DIM">     3</i>
   <i type="int" name="ANTIRES">     0</i>
   <i name="OMEGAMAX">    -30.00000000</i>
   <i name="OMEGAMIN">    -30.00000000</i>
   <i name="OMEGATL">   -200.00000000</i>
   <i type="int" name="OMEGAGRID">   140</i>
   <i name="CSHIFT">     -0.10000000</i>
   <i type="logical" name="SELFENERGY"> F  </i>
   <i type="logical" name="LSPECTRAL"> F  </i>
   <i type="logical" name="LSPECTRALGW"> F  </i>
   <i type="logical" name="LSINGLES"> F  </i>
   <i type="logical" name="LFERMIGW"> F  </i>
   <i type="logical" name="ODDONLYGW"> F  </i>
   <i type="logical" name="EVENONLYGW"> F  </i>
   <i type="int" name="NKREDLFX">     1</i>
   <i type="int" name="NKREDLFY">     1</i>
   <i type="int" name="NKREDLFZ">     1</i>
   <i type="int" name="MAXMEM">  2800</i>
   <i type="int" name="TELESCOPE">     0</i>
   <i type="int" name="TAUPAR">     1</i>
   <i type="int" name="OMEGAPAR">    -1</i>
   <i name="LAMBDA">      1.00000000</i>
  </separator>
  <separator name="External order field" >
   <i name="OFIELD_KAPPA">      0.00000000</i>
   <v name="OFIELD_K">      0.00000000      0.00000000      0.00000000</v>
   <i name="OFIELD_Q6_NEAR">      0.00000000</i>
   <i name="OFIELD_Q6_FAR">      0.00000000</i>
   <i name="OFIELD_A">      0.00000000</i>
  </separator>
 </parameters>
 <atominfo>
  <atoms>      96 </atoms>
  <types>       3 </types>
  <array name="atoms" >
   <dimension dim="1">ion</dimension>
   <field type="string">element</field>
   <field type="int">atomtype</field>
   <set>
    <rc><c>Sn</c><c>   1</c></rc>
    <rc><c>Si</c><c>   2</c></rc>
    <rc><c>Si</c><c>   2</c></rc>
    <rc><c>Si</c><c>   2</c></rc>
    <rc><c>Si</c><c>   2</c></rc>
    <rc><c>Si</c><c>   2</c></rc>
    <rc><c>Si</c><c>   2</c></rc>
    <rc><c>Si</c><c>   2</c></rc>
    <rc><c>Si</c><c>   2</c></rc>
    <rc><c>Si</c><c>   2</c></rc>
    <rc><c>Si</c><c>   2</c></rc>
    <rc><c>Si</c><c>   2</c></rc>
    <rc><c>Si</c><c>   2</c></rc>
    <rc><c>Si</c><c>   2</c></rc>
    <rc><c>Si</c><c>   2</c></rc>
    <rc><c>Si</c><c>   2</c></rc>
    <rc><c>Si</c><c>   2</c></rc>
    <rc><c>Si</c><c>   2</c></rc>
    <rc><c>Si</c><c>   2</c></rc>
    <rc><c>Si</c><c>   2</c></rc>
    <rc><c>Si</c><c>   2</c></rc>
    <rc><c>Si</c><c>   2</c></rc>
    <rc><c>Si</c><c>   2</c></rc>
    <rc><c>Si</c><c>   2</c></rc>
    <rc><c>Si</c><c>   2</c></rc>
    <rc><c>Si</c><c>   2</c></rc>
    <rc><c>Si</c><c>   2</c></rc>
    <rc><c>Si</c><c>   2</c></rc>
    <rc><c>Si</c><c>   2</c></rc>
    <rc><c>Si</c><c>   2</c></rc>
    <rc><c>Si</c><c>   2</c></rc>
    <rc><c>Si</c><c>   2</c></rc>
    <rc><c>Mg</c><c>   3</c></rc>
    <rc><c>Mg</c><c>   3</c></rc>
    <rc><c>Mg</c><c>   3</c></rc>
    <rc><c>Mg</c><c>   3</c></rc>
    <rc><c>Mg</c><c>   3</c></rc>
    <rc><c>Mg</c><c>   3</c></rc>
    <rc><c>Mg</c><c>   3</c></rc>
    <rc><c>Mg</c><c>   3</c></rc>
    <rc><c>Mg</c><c>   3</c></rc>
    <rc><c>Mg</c><c>   3</c></rc>
    <rc><c>Mg</c><c>   3</c></rc>
    <rc><c>Mg</c><c>   3</c></rc>
    <rc><c>Mg</c><c>   3</c></rc>
    <rc><c>Mg</c><c>   3</c></rc>
    <rc><c>Mg</c><c>   3</c></rc>
    <rc><c>Mg</c><c>   3</c></rc>
    <rc><c>Mg</c><c>   3</c></rc>
    <rc><c>Mg</c><c>   3</c></rc>
    <rc><c>Mg</c><c>   3</c></rc>
    <rc><c>Mg</c><c>   3</c></rc>
    <rc><c>Mg</c><c>   3</c></rc>
    <rc><c>Mg</c><c>   3</c></rc>
    <rc><c>Mg</c><c>   3</c></rc>
    <rc><c>Mg</c><c>   3</c></rc>
    <rc><c>Mg</c><c>   3</c></rc>
    <rc><c>Mg</c><c>   3</c></rc>
    <rc><c>Mg</c><c>   3</c></rc>
    <rc><c>Mg</c><c>   3</c></rc>
    <rc><c>Mg</c><c>   3</c></rc>
    <rc><c>Mg</c><c>   3</c></rc>
    <rc><c>Mg</c><c>   3</c></rc>
    <rc><c>Mg</c><c>   3</c></rc>
    <rc><c>Mg</c><c>   3</c></rc>
    <rc><c>Mg</c><c>   3</c></rc>
    <rc><c>Mg</c><c>   3</c></rc>
    <rc><c>Mg</c><c>   3</c></rc>
    <rc><c>Mg</c><c>   3</c></rc>
    <rc><c>Mg</c><c>   3</c></rc>
    <rc><c>Mg</c><c>   3</c></rc>
    <rc><c>Mg</c><c>   3</c></rc>
    <rc><c>Mg</c><c>   3</c></rc>
    <rc><c>Mg</c><c>   3</c></rc>
    <rc><c>Mg</c><c>   3</c></rc>
    <rc><c>Mg</c><c>   3</c></rc>
    <rc><c>Mg</c><c>   3</c></rc>
    <rc><c>Mg</c><c>   3</c></rc>
    <rc><c>Mg</c><c>   3</c></rc>
    <rc><c>Mg</c><c>   3</c></rc>
    <rc><c>Mg</c><c>   3</c></rc>
    <rc><c>Mg</c><c>   3</c></rc>
    <rc><c>Mg</c><c>   3</c></rc>
    <rc><c>Mg</c><c>   3</c></rc>
    <rc><c>Mg</c><c>   3</c></rc>
    <rc><c>Mg</c><c>   3</c></rc>
    <rc><c>Mg</c><c>   3</c></rc>
    <rc><c>Mg</c><c>   3</c></rc>
    <rc><c>Mg</c><c>   3</c></rc>
    <rc><c>Mg</c><c>   3</c></rc>
    <rc><c>Mg</c><c>   3</c></rc>
    <rc><c>Mg</c><c>   3</c></rc>
    <rc><c>Mg</c><c>   3</c></rc>
    <rc><c>Mg</c><c>   3</c></rc>
    <rc><c>Mg</c><c>   3</c></rc>
    <rc><c>Mg</c><c>   3</c></rc>
   </set>
  </array>
  <array name="atomtypes" >
   <dimension dim="1">type</dimension>
   <field type="int">atomspertype</field>
   <field type="string">element</field>
   <field>mass</field>
   <field>valence</field>
   <field type="string">pseudopotential</field>
   <set>
    <rc><c>   1</c><c>Sn</c><c>    118.71000000</c><c>      4.00000000</c><c>  PAW_PBE Sn 08Apr2002                  </c></rc>
    <rc><c>  31</c><c>Si</c><c>     28.08500000</c><c>      4.00000000</c><c>  PAW_PBE Si 05Jan2001                  </c></rc>
    <rc><c>  64</c><c>Mg</c><c>     24.30500000</c><c>      2.00000000</c><c>  PAW_PBE Mg 13Apr2007                  </c></rc>
   </set>
  </array>
 </atominfo>
 <structure name="initialpos" >
  <crystal>
   <varray name="basis" >
    <v>      12.74739769       0.00000000       0.00000000 </v>
    <v>       0.00000000      12.74739769       0.00000000 </v>
    <v>       0.00000000       0.00000000      12.74739769 </v>
   </varray>
   <i name="volume">   2071.40301882 </i>
   <varray name="rec_basis" >
    <v>       0.07844738       0.00000000       0.00000000 </v>
    <v>       0.00000000       0.07844738       0.00000000 </v>
    <v>       0.00000000       0.00000000       0.07844738 </v>
   </varray>
  </crystal>
  <varray name="positions" >
   <v>       0.00000000       0.00000000       0.00000000 </v>
   <v>       0.50000000       0.00000000       0.00000000 </v>
   <v>       0.00000000       0.50000000       0.00000000 </v>
   <v>       0.50000000       0.50000000       0.00000000 </v>
   <v>       0.00000000       0.00000000       0.50000000 </v>
   <v>       0.50000000       0.00000000       0.50000000 </v>
   <v>       0.00000000       0.50000000       0.50000000 </v>
   <v>       0.50000000       0.50000000       0.50000000 </v>
   <v>       0.25084822       0.25140293       0.99944529 </v>
   <v>       0.74859707       0.25140293       0.00000000 </v>
   <v>       0.25140293       0.74859707       0.00000000 </v>
   <v>       0.74859707       0.74859707       0.00000000 </v>
   <v>       0.25012668       0.25012668       0.50000000 </v>
   <v>       0.74987332       0.25012668       0.50000000 </v>
   <v>       0.25012668       0.74987332       0.50000000 </v>
   <v>       0.74987332       0.74987332       0.50000000 </v>
   <v>       0.25140293       0.00000000       0.25140293 </v>
   <v>       0.74859707       0.00000000       0.25140293 </v>
   <v>       0.25012668       0.50000000       0.25012668 </v>
   <v>       0.74987332       0.50000000       0.25012668 </v>
   <v>       0.25140293       0.00000000       0.74859707 </v>
   <v>       0.74859707       0.00000000       0.74859707 </v>
   <v>       0.25012668       0.50000000       0.74987332 </v>
   <v>       0.74987332       0.50000000       0.74987332 </v>
   <v>       0.00000000       0.25140293       0.25140293 </v>
   <v>       0.50000000       0.25012668       0.25012668 </v>
   <v>       0.00000000       0.74859707       0.25140293 </v>
   <v>       0.50000000       0.74987332       0.25012668 </v>
   <v>       0.00000000       0.25140293       0.74859707 </v>
   <v>       0.50000000       0.25012668       0.74987332 </v>
   <v>       0.00000000       0.74859707       0.74859707 </v>
   <v>       0.50000000       0.74987332       0.74987332 </v>
   <v>       0.12960836       0.12960836       0.12960836 </v>
   <v>       0.62421357       0.12507203       0.12507203 </v>
   <v>       0.12507203       0.62421357       0.12507203 </v>
   <v>       0.62455273       0.62455273       0.12469540 </v>
   <v>       0.12507203       0.12507203       0.62421357 </v>
   <v>       0.62455273       0.12469540       0.62455273 </v>
   <v>       0.12469540       0.62455273       0.62455273 </v>
   <v>       0.62508239       0.62508239       0.62508239 </v>
   <v>       0.37578643       0.12507203       0.12507203 </v>
   <v>       0.87039164       0.12960836       0.12960836 </v>
   <v>       0.37544727       0.62455273       0.12469540 </v>
   <v>       0.87492797       0.62421357       0.12507203 </v>
   <v>       0.37544727       0.12469540       0.62455273 </v>
   <v>       0.87492797       0.12507203       0.62421357 </v>
   <v>       0.37491761       0.62508239       0.62508239 </v>
   <v>       0.87530460       0.62455273       0.62455273 </v>
   <v>       0.12507203       0.37578643       0.12507203 </v>
   <v>       0.62455273       0.37544727       0.12469540 </v>
   <v>       0.12960836       0.87039164       0.12960836 </v>
   <v>       0.62421357       0.87492797       0.12507203 </v>
   <v>       0.12469540       0.37544727       0.62455273 </v>
   <v>       0.62508239       0.37491761       0.62508239 </v>
   <v>       0.12507203       0.87492797       0.62421357 </v>
   <v>       0.62455273       0.87530460       0.62455273 </v>
   <v>       0.37544727       0.37544727       0.12469540 </v>
   <v>       0.87492797       0.37578643       0.12507203 </v>
   <v>       0.37578643       0.87492797       0.12507203 </v>
   <v>       0.87039164       0.87039164       0.12960836 </v>
   <v>       0.37491761       0.37491761       0.62508239 </v>
   <v>       0.87530460       0.37544727       0.62455273 </v>
   <v>       0.37544727       0.87530460       0.62455273 </v>
   <v>       0.87492797       0.87492797       0.62421357 </v>
   <v>       0.12507203       0.12507203       0.37578643 </v>
   <v>       0.62455273       0.12469540       0.37544727 </v>
   <v>       0.12469540       0.62455273       0.37544727 </v>
   <v>       0.62508239       0.62508239       0.37491761 </v>
   <v>       0.12960836       0.12960836       0.87039164 </v>
   <v>       0.62421357       0.12507203       0.87492797 </v>
   <v>       0.12507203       0.62421357       0.87492797 </v>
   <v>       0.62455273       0.62455273       0.87530460 </v>
   <v>       0.37544727       0.12469540       0.37544727 </v>
   <v>       0.87492797       0.12507203       0.37578643 </v>
   <v>       0.37491761       0.62508239       0.37491761 </v>
   <v>       0.87530460       0.62455273       0.37544727 </v>
   <v>       0.37578643       0.12507203       0.87492797 </v>
   <v>       0.87039164       0.12960836       0.87039164 </v>
   <v>       0.37544727       0.62455273       0.87530460 </v>
   <v>       0.87492797       0.62421357       0.87492797 </v>
   <v>       0.12469540       0.37544727       0.37544727 </v>
   <v>       0.62508239       0.37491761       0.37491761 </v>
   <v>       0.12507203       0.87492797       0.37578643 </v>
   <v>       0.62455273       0.87530460       0.37544727 </v>
   <v>       0.12507203       0.37578643       0.87492797 </v>
   <v>       0.62455273       0.37544727       0.87530460 </v>
   <v>       0.12960836       0.87039164       0.87039164 </v>
   <v>       0.62421357       0.87492797       0.87492797 </v>
   <v>       0.37491761       0.37491761       0.37491761 </v>
   <v>       0.87530460       0.37544727       0.37544727 </v>
   <v>       0.37544727       0.87530460       0.37544727 </v>
   <v>       0.87492797       0.87492797       0.37578643 </v>
   <v>       0.37544727       0.37544727       0.87530460 </v>
   <v>       0.87492797       0.37578643       0.87492797 </v>
   <v>       0.37578643       0.87492797       0.87492797 </v>
   <v>       0.87039164       0.87039164       0.87039164 </v>
  </varray>
 </structure>
 <calculation>
  <scstep>
   <time name="dav">   13.18   13.22</time>
   <time name="total">   13.98   14.02</time>
   <energy>
    <i name="alphaZ">    214.09658884 </i>
    <i name="ewald">  -5218.83868062 </i>
    <i name="hartreedc">   -333.02081881 </i>
    <i name="XCdc">  -3539.85010338 </i>
    <i name="pawpsdc">   7100.88161447 </i>
    <i name="pawaedc">  -3112.42095010 </i>
    <i name="eentropy">     -0.00000000 </i>
    <i name="bandstr">    447.64384350 </i>
    <i name="atom">   4763.39200965 </i>
    <i name="e_fr_energy">    321.88350354 </i>
    <i name="e_wo_entrp">    321.88350354 </i>
    <i name="e_0_energy">    321.88350354 </i>
   </energy>
  </scstep>
  <scstep>
   <time name="dav">   15.27   15.30</time>
   <time name="total">   15.27   15.30</time>
   <energy>
    <i name="e_fr_energy">   -253.37745992 </i>
    <i name="e_wo_entrp">   -253.37745992 </i>
    <i name="e_0_energy">   -253.37745992 </i>
   </energy>
  </scstep>
  <scstep>
   <time name="dav">   15.37   15.40</time>
   <time name="total">   15.37   15.40</time>
   <energy>
    <i name="e_fr_energy">   -296.45446762 </i>
    <i name="e_wo_entrp">   -296.45446762 </i>
    <i name="e_0_energy">   -296.45446762 </i>
   </energy>
  </scstep>
  <scstep>
   <time name="dav">   15.13   15.15</time>
   <time name="total">   15.13   15.16</time>
   <energy>
    <i name="e_fr_energy">   -297.34057487 </i>
    <i name="e_wo_entrp">   -297.34057487 </i>
    <i name="e_0_energy">   -297.34057487 </i>
   </energy>
  </scstep>
  <scstep>
   <time name="dav">   15.35   15.38</time>
   <time name="total">   15.76   15.79</time>
   <energy>
    <i name="e_fr_energy">   -297.36440645 </i>
    <i name="e_wo_entrp">   -297.36440645 </i>
    <i name="e_0_energy">   -297.36440645 </i>
   </energy>
  </scstep>
  <scstep>
   <time name="dav">   13.25   13.28</time>
   <time name="total">   14.45   14.48</time>
   <energy>
    <i name="e_fr_energy">   -280.24022221 </i>
    <i name="e_wo_entrp">   -280.24022221 </i>
    <i name="e_0_energy">   -280.24022221 </i>
   </energy>
  </scstep>
  <scstep>
   <time name="dav">   14.09   14.12</time>
   <time name="total">   15.29   15.32</time>
   <energy>
    <i name="e_fr_energy">   -277.76402139 </i>
    <i name="e_wo_entrp">   -277.76402134 </i>
    <i name="e_0_energy">   -277.76402137 </i>
   </energy>
  </scstep>
  <scstep>
   <time name="dav">   14.22   14.24</time>
   <time name="total">   15.41   15.44</time>
   <energy>
    <i name="e_fr_energy">   -277.76820423 </i>
    <i name="e_wo_entrp">   -277.76820423 </i>
    <i name="e_0_energy">   -277.76820423 </i>
   </energy>
  </scstep>
  <scstep>
   <time name="dav">   14.21   14.24</time>
   <time name="total">   15.40   15.44</time>
   <energy>
    <i name="e_fr_energy">   -277.76489196 </i>
    <i name="e_wo_entrp">   -277.76489196 </i>
    <i name="e_0_energy">   -277.76489196 </i>
   </energy>
  </scstep>
  <scstep>
   <time name="dav">   14.44   14.47</time>
   <time name="total">   15.64   15.67</time>
   <energy>
    <i name="e_fr_energy">   -277.76810539 </i>
    <i name="e_wo_entrp">   -277.76810539 </i>
    <i name="e_0_energy">   -277.76810539 </i>
   </energy>
  </scstep>
  <scstep>
   <time name="dav">   14.90   14.92</time>
   <time name="total">   16.09   16.12</time>
   <energy>
    <i name="e_fr_energy">   -277.76855262 </i>
    <i name="e_wo_entrp">   -277.76855262 </i>
    <i name="e_0_energy">   -277.76855262 </i>
   </energy>
  </scstep>
  <scstep>
   <time name="dav">   15.34   15.37</time>
   <time name="total">   16.53   16.56</time>
   <energy>
    <i name="e_fr_energy">   -277.76845420 </i>
    <i name="e_wo_entrp">   -277.76845420 </i>
    <i name="e_0_energy">   -277.76845420 </i>
   </energy>
  </scstep>
  <scstep>
   <time name="dav">   14.66   14.69</time>
   <time name="total">   15.84   15.87</time>
   <energy>
    <i name="e_fr_energy">   -277.76842674 </i>
    <i name="e_wo_entrp">   -277.76842674 </i>
    <i name="e_0_energy">   -277.76842674 </i>
   </energy>
  </scstep>
  <scstep>
   <time name="dav">   14.17   14.20</time>
   <time name="total">   15.35   15.38</time>
   <energy>
    <i name="e_fr_energy">   -277.76843299 </i>
    <i name="e_wo_entrp">   -277.76843299 </i>
    <i name="e_0_energy">   -277.76843299 </i>
   </energy>
  </scstep>
  <scstep>
   <time name="dav">   14.17   14.20</time>
   <time name="total">   15.36   15.38</time>
   <energy>
    <i name="e_fr_energy">   -277.76843269 </i>
    <i name="e_wo_entrp">   -277.76843269 </i>
    <i name="e_0_energy">   -277.76843269 </i>
   </energy>
  </scstep>
  <scstep>
   <time name="dav">   15.05   15.08</time>
   <time name="total">   16.24   16.27</time>
   <energy>
    <i name="e_fr_energy">   -277.76843295 </i>
    <i name="e_wo_entrp">   -277.76843295 </i>
    <i name="e_0_energy">   -277.76843295 </i>
   </energy>
  </scstep>
  <scstep>
   <time name="dav">   14.15   14.18</time>
   <time name="total">   15.34   15.37</time>
   <energy>
    <i name="e_fr_energy">   -277.76843314 </i>
    <i name="e_wo_entrp">   -277.76843314 </i>
    <i name="e_0_energy">   -277.76843314 </i>
   </energy>
  </scstep>
  <scstep>
   <time name="dav">   13.49   13.52</time>
   <time name="total">   14.68   14.71</time>
   <energy>
    <i name="e_fr_energy">   -277.76843311 </i>
    <i name="e_wo_entrp">   -277.76843311 </i>
    <i name="e_0_energy">   -277.76843311 </i>
   </energy>
  </scstep>
  <scstep>
   <time name="dav">   10.36   10.38</time>
   <time name="total">   11.55   11.57</time>
   <energy>
    <i name="e_fr_energy">   -277.76843313 </i>
    <i name="e_wo_entrp">   -277.76843313 </i>
    <i name="e_0_energy">   -277.76843313 </i>
   </energy>
  </scstep>
  <scstep>
   <time name="dav">    9.58    9.60</time>
   <time name="total">   10.76   10.79</time>
   <energy>
    <i name="e_fr_energy">   -277.76843316 </i>
    <i name="e_wo_entrp">   -277.76843316 </i>
    <i name="e_0_energy">   -277.76843316 </i>
   </energy>
  </scstep>
  <scstep>
   <time name="dav">    9.33    9.35</time>
   <time name="total">   10.52   10.54</time>
   <energy>
    <i name="e_fr_energy">   -277.76843315 </i>
    <i name="e_wo_entrp">   -277.76843315 </i>
    <i name="e_0_energy">   -277.76843315 </i>
   </energy>
  </scstep>
  <scstep>
   <time name="dav">    9.56    9.57</time>
   <time name="total">   10.33   10.35</time>
   <energy>
    <i name="alphaZ">    214.09658884 </i>
    <i name="ewald">  -5218.83868062 </i>
    <i name="hartreedc">   -486.11647903 </i>
    <i name="XCdc">  -3511.70767082 </i>
    <i name="pawpsdc">  17714.22227269 </i>
    <i name="pawaedc"> -13730.54406013 </i>
    <i name="eentropy">     -0.00000000 </i>
    <i name="bandstr">    -22.27241372 </i>
    <i name="atom">   4763.39200965 </i>
    <i name="e_fr_energy">   -277.76843314 </i>
    <i name="e_wo_entrp">   -277.76843314 </i>
    <i name="e_0_energy">   -277.76843314 </i>
   </energy>
  </scstep>
  <structure>
   <crystal>
    <varray name="basis" >
     <v>      12.74739769       0.00000000       0.00000000 </v>
     <v>       0.00000000      12.74739769       0.00000000 </v>
     <v>       0.00000000       0.00000000      12.74739769 </v>
    </varray>
    <i name="volume">   2071.40301882 </i>
    <varray name="rec_basis" >
     <v>       0.07844738       0.00000000       0.00000000 </v>
     <v>       0.00000000       0.07844738       0.00000000 </v>
     <v>       0.00000000       0.00000000       0.07844738 </v>
    </varray>
   </crystal>
   <varray name="positions" >
    <v>       0.00000000       0.00000000       0.00000000 </v>
    <v>       0.50000000       0.00000000       0.00000000 </v>
    <v>       0.00000000       0.50000000       0.00000000 </v>
    <v>       0.50000000       0.50000000       0.00000000 </v>
    <v>       0.00000000       0.00000000       0.50000000 </v>
    <v>       0.50000000       0.00000000       0.50000000 </v>
    <v>       0.00000000       0.50000000       0.50000000 </v>
    <v>       0.50000000       0.50000000       0.50000000 </v>
    <v>       0.25084822       0.25140293       0.99944529 </v>
    <v>       0.74859707       0.25140293       0.00000000 </v>
    <v>       0.25140293       0.74859707       0.00000000 </v>
    <v>       0.74859707       0.74859707       0.00000000 </v>
    <v>       0.25012668       0.25012668       0.50000000 </v>
    <v>       0.74987332       0.25012668       0.50000000 </v>
    <v>       0.25012668       0.74987332       0.50000000 </v>
    <v>       0.74987332       0.74987332       0.50000000 </v>
    <v>       0.25140293       0.00000000       0.25140293 </v>
    <v>       0.74859707       0.00000000       0.25140293 </v>
    <v>       0.25012668       0.50000000       0.25012668 </v>
    <v>       0.74987332       0.50000000       0.25012668 </v>
    <v>       0.25140293       0.00000000       0.74859707 </v>
    <v>       0.74859707       0.00000000       0.74859707 </v>
    <v>       0.25012668       0.50000000       0.74987332 </v>
    <v>       0.74987332       0.50000000       0.74987332 </v>
    <v>       0.00000000       0.25140293       0.25140293 </v>
    <v>       0.50000000       0.25012668       0.25012668 </v>
    <v>       0.00000000       0.74859707       0.25140293 </v>
    <v>       0.50000000       0.74987332       0.25012668 </v>
    <v>       0.00000000       0.25140293       0.74859707 </v>
    <v>       0.50000000       0.25012668       0.74987332 </v>
    <v>       0.00000000       0.74859707       0.74859707 </v>
    <v>       0.50000000       0.74987332       0.74987332 </v>
    <v>       0.12960836       0.12960836       0.12960836 </v>
    <v>       0.62421357       0.12507203       0.12507203 </v>
    <v>       0.12507203       0.62421357       0.12507203 </v>
    <v>       0.62455273       0.62455273       0.12469540 </v>
    <v>       0.12507203       0.12507203       0.62421357 </v>
    <v>       0.62455273       0.12469540       0.62455273 </v>
    <v>       0.12469540       0.62455273       0.62455273 </v>
    <v>       0.62508239       0.62508239       0.62508239 </v>
    <v>       0.37578643       0.12507203       0.12507203 </v>
    <v>       0.87039164       0.12960836       0.12960836 </v>
    <v>       0.37544727       0.62455273       0.12469540 </v>
    <v>       0.87492797       0.62421357       0.12507203 </v>
    <v>       0.37544727       0.12469540       0.62455273 </v>
    <v>       0.87492797       0.12507203       0.62421357 </v>
    <v>       0.37491761       0.62508239       0.62508239 </v>
    <v>       0.87530460       0.62455273       0.62455273 </v>
    <v>       0.12507203       0.37578643       0.12507203 </v>
    <v>       0.62455273       0.37544727       0.12469540 </v>
    <v>       0.12960836       0.87039164       0.12960836 </v>
    <v>       0.62421357       0.87492797       0.12507203 </v>
    <v>       0.12469540       0.37544727       0.62455273 </v>
    <v>       0.62508239       0.37491761       0.62508239 </v>
    <v>       0.12507203       0.87492797       0.62421357 </v>
    <v>       0.62455273       0.87530460       0.62455273 </v>
    <v>       0.37544727       0.37544727       0.12469540 </v>
    <v>       0.87492797       0.37578643       0.12507203 </v>
    <v>       0.37578643       0.87492797       0.12507203 </v>
    <v>       0.87039164       0.87039164       0.12960836 </v>
    <v>       0.37491761       0.37491761       0.62508239 </v>
    <v>       0.87530460       0.37544727       0.62455273 </v>
    <v>       0.37544727       0.87530460       0.62455273 </v>
    <v>       0.87492797       0.87492797       0.62421357 </v>
    <v>       0.12507203       0.12507203       0.37578643 </v>
    <v>       0.62455273       0.12469540       0.37544727 </v>
    <v>       0.12469540       0.62455273       0.37544727 </v>
    <v>       0.62508239       0.62508239       0.37491761 </v>
    <v>       0.12960836       0.12960836       0.87039164 </v>
    <v>       0.62421357       0.12507203       0.87492797 </v>
    <v>       0.12507203       0.62421357       0.87492797 </v>
    <v>       0.62455273       0.62455273       0.87530460 </v>
    <v>       0.37544727       0.12469540       0.37544727 </v>
    <v>       0.87492797       0.12507203       0.37578643 </v>
    <v>       0.37491761       0.62508239       0.37491761 </v>
    <v>       0.87530460       0.62455273       0.37544727 </v>
    <v>       0.37578643       0.12507203       0.87492797 </v>
    <v>       0.87039164       0.12960836       0.87039164 </v>
    <v>       0.37544727       0.62455273       0.87530460 </v>
    <v>       0.87492797       0.62421357       0.87492797 </v>
    <v>       0.12469540       0.37544727       0.37544727 </v>
    <v>       0.62508239       0.37491761       0.37491761 </v>
    <v>       0.12507203       0.87492797       0.37578643 </v>
    <v>       0.62455273       0.87530460       0.37544727 </v>
    <v>       0.12507203       0.37578643       0.87492797 </v>
    <v>       0.62455273       0.37544727       0.87530460 </v>
    <v>       0.12960836       0.87039164       0.87039164 </v>
    <v>       0.62421357       0.87492797       0.87492797 </v>
    <v>       0.37491761       0.37491761       0.37491761 </v>
    <v>       0.87530460       0.37544727       0.37544727 </v>
    <v>       0.37544727       0.87530460       0.37544727 </v>
    <v>       0.87492797       0.87492797       0.37578643 </v>
    <v>       0.37544727       0.37544727       0.87530460 </v>
    <v>       0.87492797       0.37578643       0.87492797 </v>
    <v>       0.37578643       0.87492797       0.87492797 </v>
    <v>       0.87039164       0.87039164       0.87039164 </v>
   </varray>
  </structure>
  <varray name="forces" >
   <v>      -0.00023406      -0.00249639       0.00167361 </v>
   <v>      -0.00067542       0.00235098       0.00166569 </v>
   <v>      -0.00055924       0.00230186       0.00167123 </v>
   <v>      -0.00037787      -0.00268030       0.00217679 </v>
   <v>       0.00088896      -0.00034761       0.00022362 </v>
   <v>       0.00112732       0.00019230       0.00018492 </v>
   <v>       0.00090133       0.00011575       0.00018405 </v>
   <v>       0.00097972      -0.00040526       0.00021837 </v>
   <v>       0.04624271       0.00791800       0.04014758 </v>
   <v>      -0.00851452       0.00634487      -0.00123758 </v>
   <v>       0.00531759      -0.00634528      -0.00123743 </v>
   <v>      -0.01116147      -0.00625146      -0.00256254 </v>
   <v>      -0.00448913      -0.00342267      -0.00243290 </v>
   <v>      -0.00114134      -0.00336635      -0.00489433 </v>
   <v>      -0.00562571       0.00359991      -0.00489505 </v>
   <v>       0.00131899       0.00350326      -0.00236006 </v>
   <v>       0.00783295       0.00243625       0.00589338 </v>
   <v>      -0.00639773       0.00037341       0.00744363 </v>
   <v>      -0.00186990      -0.00243108      -0.00398115 </v>
   <v>       0.00349013      -0.00026985      -0.00235377 </v>
   <v>       0.00770816      -0.00230179      -0.00674839 </v>
   <v>      -0.00632311      -0.00029464      -0.00517547 </v>
   <v>      -0.00198243       0.00250537       0.00285052 </v>
   <v>       0.00352243       0.00031092       0.00452816 </v>
   <v>       0.00194684       0.00639086       0.00823635 </v>
   <v>      -0.00284816      -0.00338460      -0.00643005 </v>
   <v>       0.00146787      -0.00634628       0.00780605 </v>
   <v>       0.00084311       0.00346876      -0.00265249 </v>
   <v>      -0.00279888       0.00626097      -0.00909537 </v>
   <v>       0.00208041      -0.00350177       0.00531138 </v>
   <v>       0.00080186      -0.00627042      -0.00553351 </v>
   <v>       0.00142524       0.00350170       0.00482846 </v>
   <v>      -0.01679724      -0.01488108      -0.01666425 </v>
   <v>      -0.00087578       0.00028696       0.00005866 </v>
   <v>      -0.00023480      -0.00155034      -0.00022451 </v>
   <v>      -0.00024198      -0.00035107      -0.00015450 </v>
   <v>       0.00001973       0.00075146      -0.00094678 </v>
   <v>      -0.00037196      -0.00031274      -0.00027811 </v>
   <v>      -0.00002831      -0.00067705      -0.00012735 </v>
   <v>      -0.00076603      -0.00090179      -0.00074481 </v>
   <v>      -0.00489379       0.00504424      -0.00605599 </v>
   <v>       0.01514551      -0.01516212      -0.01521322 </v>
   <v>       0.00038433      -0.00019495      -0.00045007 </v>
   <v>       0.00005925      -0.00195744      -0.00007529 </v>
   <v>       0.00016494      -0.00065506      -0.00016390 </v>
   <v>       0.00024244       0.00134683      -0.00087672 </v>
   <v>       0.00022431      -0.00134978      -0.00035058 </v>
   <v>       0.00049694      -0.00051608      -0.00034427 </v>
   <v>      -0.00151802       0.00168261      -0.00149729 </v>
   <v>       0.00010480       0.00078231      -0.00088865 </v>
   <v>      -0.01561644       0.01492594      -0.01559445 </v>
   <v>      -0.00124841      -0.00072814       0.00076987 </v>
   <v>      -0.00078145       0.00026394       0.00020678 </v>
   <v>      -0.00078468       0.00086754      -0.00073680 </v>
   <v>       0.00073399      -0.00034473      -0.00131625 </v>
   <v>      -0.00034163       0.00035235      -0.00032618 </v>
   <v>      -0.00709373      -0.00500542      -0.00790949 </v>
   <v>      -0.00020510       0.00193020       0.00013871 </v>
   <v>       0.00146445      -0.00082732       0.00039427 </v>
   <v>       0.01538396       0.01518187      -0.01546431 </v>
   <v>       0.00053073       0.00130778      -0.00056151 </v>
   <v>       0.00104950      -0.00034553       0.00019735 </v>
   <v>      -0.00011029       0.00070025       0.00001785 </v>
   <v>      -0.00031864      -0.00048192      -0.00143381 </v>
   <v>       0.00020642       0.00093629       0.00188317 </v>
   <v>       0.00029299      -0.00128815       0.00115155 </v>
   <v>      -0.00101332      -0.00000767       0.00100012 </v>
   <v>      -0.00071980      -0.00085464       0.00103898 </v>
   <v>      -0.02249808      -0.02061172       0.00669727 </v>
   <v>      -0.00124610       0.00096724      -0.00093847 </v>
   <v>       0.00044603      -0.00191977      -0.00065727 </v>
   <v>       0.00011318       0.00000869      -0.00028100 </v>
   <v>      -0.00002474      -0.00058769       0.00115620 </v>
   <v>      -0.00041549       0.00052837       0.00166410 </v>
   <v>       0.00114255      -0.00071732       0.00121385 </v>
   <v>       0.00050858      -0.00045790       0.00062954 </v>
   <v>      -0.00042496       0.00061829      -0.00250712 </v>
   <v>       0.01550186      -0.01454752       0.01440967 </v>
   <v>      -0.00036571      -0.00043768      -0.00047086 </v>
   <v>      -0.00022062      -0.00170731      -0.00030914 </v>
   <v>      -0.00071191       0.00007071       0.00078925 </v>
   <v>      -0.00015009       0.00177822       0.00159851 </v>
   <v>      -0.00007781      -0.00100528       0.00210201 </v>
   <v>      -0.00028017       0.00036065       0.00061365 </v>
   <v>      -0.00629332       0.00649893      -0.00738845 </v>
   <v>      -0.00013351       0.00003094      -0.00002899 </v>
   <v>      -0.01500076       0.01527785       0.01479414 </v>
   <v>      -0.00099617      -0.00101031      -0.00115629 </v>
   <v>       0.00038098       0.00115483       0.00157482 </v>
   <v>       0.00049424       0.00049706       0.00064728 </v>
   <v>       0.00072343       0.00014890       0.00082708 </v>
   <v>      -0.00040181      -0.00056442       0.00168025 </v>
   <v>      -0.00160332       0.00045946      -0.00150111 </v>
   <v>       0.00011214       0.00132146      -0.00098477 </v>
   <v>       0.00085655      -0.00050973      -0.00123862 </v>
   <v>       0.01512549       0.01492807       0.01515258 </v>
  </varray>
  <varray name="stress" >
   <v>      -1.01872431      -0.00072352       0.00056234 </v>
   <v>      -0.00072327      -1.01907342      -0.00029044 </v>
   <v>       0.00056210      -0.00029077      -1.01793959 </v>
  </varray>
  <energy>
   <i name="e_fr_energy">   -277.76843314 </i>
   <i name="e_wo_entrp">   -277.76843314 </i>
   <i name="e_0_energy">     -0.00000000 </i>
  </energy>
  <time name="totalsc">  353.59  354.28</time>
  <eigenvalues>
   <array>
    <dimension dim="1">band</dimension>
    <dimension dim="2">kpoint</dimension>
    <dimension dim="3">spin</dimension>
    <field>eigene</field>
    <field>occ</field>
    <set>
     <set comment="spin 1">
      <set comment="kpoint 1">
       <r>   -5.4896    1.0000 </r>
       <r>   -4.7780    1.0000 </r>
       <r>   -4.7779    1.0000 </r>
       <r>   -4.7690    1.0000 </r>
       <r>   -4.7689    1.0000 </r>
       <r>   -4.7688    1.0000 </r>
       <r>   -4.7410    1.0000 </r>
       <r>   -4.2069    1.0000 </r>
       <r>   -4.2064    1.0000 </r>
       <r>   -4.2006    1.0000 </r>
       <r>   -4.2001    1.0000 </r>
       <r>   -4.1998    1.0000 </r>
       <r>   -4.1958    1.0000 </r>
       <r>   -4.1952    1.0000 </r>
       <r>   -4.1946    1.0000 </r>
       <r>   -4.1860    1.0000 </r>
       <r>   -4.1854    1.0000 </r>
       <r>   -4.1852    1.0000 </r>
       <r>   -4.1417    1.0000 </r>
       <r>   -4.0661    1.0000 </r>
       <r>   -4.0661    1.0000 </r>
       <r>   -4.0661    1.0000 </r>
       <r>   -4.0495    1.0000 </r>
       <r>   -3.5079    1.0000 </r>
       <r>   -3.5079    1.0000 </r>
       <r>   -3.4981    1.0000 </r>
       <r>   -3.4677    1.0000 </r>
       <r>   -3.4674    1.0000 </r>
       <r>   -3.4605    1.0000 </r>
       <r>   -3.4601    1.0000 </r>
       <r>   -3.4598    1.0000 </r>
       <r>   -3.3904    1.0000 </r>
       <r>   -1.1929    1.0000 </r>
       <r>   -1.1580    1.0000 </r>
       <r>   -1.1580    1.0000 </r>
       <r>   -1.1580    1.0000 </r>
       <r>   -0.8439    1.0000 </r>
       <r>   -0.8439    1.0000 </r>
       <r>   -0.8439    1.0000 </r>
       <r>   -0.0453    1.0000 </r>
       <r>   -0.0447    1.0000 </r>
       <r>   -0.0440    1.0000 </r>
       <r>   -0.0340    1.0000 </r>
       <r>   -0.0338    1.0000 </r>
       <r>   -0.0335    1.0000 </r>
       <r>   -0.0257    1.0000 </r>
       <r>   -0.0257    1.0000 </r>
       <r>   -0.0255    1.0000 </r>
       <r>   -0.0008    1.0000 </r>
       <r>   -0.0003    1.0000 </r>
       <r>   -0.0002    1.0000 </r>
       <r>    0.0102    1.0000 </r>
       <r>    0.0107    1.0000 </r>
       <r>    0.0110    1.0000 </r>
       <r>    0.0111    1.0000 </r>
       <r>    0.0112    1.0000 </r>
       <r>    0.0137    1.0000 </r>
       <r>    0.0142    1.0000 </r>
       <r>    0.0143    1.0000 </r>
       <r>    0.0539    1.0000 </r>
       <r>    0.0540    1.0000 </r>
       <r>    0.0545    1.0000 </r>
       <r>    0.0684    1.0000 </r>
       <r>    0.7624    1.0000 </r>
       <r>    0.7631    1.0000 </r>
       <r>    0.7687    1.0000 </r>
       <r>    0.7834    1.0000 </r>
       <r>    0.7837    1.0000 </r>
       <r>    0.7840    1.0000 </r>
       <r>    0.8013    1.0000 </r>
       <r>    0.8016    1.0000 </r>
       <r>    0.8017    1.0000 </r>
       <r>    0.8019    1.0000 </r>
       <r>    0.8020    1.0000 </r>
       <r>    0.8025    1.0000 </r>
       <r>    0.9188    1.0000 </r>
       <r>    0.9352    1.0000 </r>
       <r>    0.9355    1.0000 </r>
       <r>    0.9359    1.0000 </r>
       <r>    0.9575    1.0000 </r>
       <r>    0.9579    1.0000 </r>
       <r>    1.1728    1.0000 </r>
       <r>    1.1735    1.0000 </r>
       <r>    1.1737    1.0000 </r>
       <r>    1.1739    1.0000 </r>
       <r>    1.1746    1.0000 </r>
       <r>    1.2247    1.0000 </r>
       <r>    1.6500    1.0000 </r>
       <r>    1.6500    1.0000 </r>
       <r>    1.6500    1.0000 </r>
       <r>    1.6527    1.0000 </r>
       <r>    1.6527    1.0000 </r>
       <r>    1.6527    1.0000 </r>
       <r>    2.3237    1.0000 </r>
       <r>    2.3243    1.0000 </r>
       <r>    2.3245    1.0000 </r>
       <r>    2.3305    1.0000 </r>
       <r>    2.3307    1.0000 </r>
       <r>    2.3311    1.0000 </r>
       <r>    2.3312    1.0000 </r>
       <r>    2.3314    1.0000 </r>
       <r>    2.3317    1.0000 </r>
       <r>    2.3810    1.0000 </r>
       <r>    2.3812    1.0000 </r>
       <r>    2.3818    1.0000 </r>
       <r>    2.7665    1.0000 </r>
       <r>    2.7667    1.0000 </r>
       <r>    2.7671    1.0000 </r>
       <r>    2.7790    1.0000 </r>
       <r>    2.7793    1.0000 </r>
       <r>    2.7794    1.0000 </r>
       <r>    2.7878    1.0000 </r>
       <r>    2.7952    1.0000 </r>
       <r>    2.7952    1.0000 </r>
       <r>    2.8220    1.0000 </r>
       <r>    2.8221    1.0000 </r>
       <r>    2.8224    1.0000 </r>
       <r>    2.8683    1.0000 </r>
       <r>    2.8683    1.0000 </r>
       <r>    2.8949    1.0000 </r>
       <r>    2.8949    1.0000 </r>
       <r>    2.8949    1.0000 </r>
       <r>    2.9793    1.0000 </r>
       <r>    2.9795    1.0000 </r>
       <r>    2.9797    1.0000 </r>
       <r>    3.6211    1.0000 </r>
       <r>    3.6212    1.0000 </r>
       <r>    3.6213    1.0000 </r>
       <r>    3.7507    0.0000 </r>
       <r>    3.7931    0.0000 </r>
       <r>    3.7931    0.0000 </r>
       <r>    3.9521    0.0000 </r>
       <r>    3.9521    0.0000 </r>
       <r>    3.9522    0.0000 </r>
       <r>    4.7270    0.0000 </r>
       <r>    4.7271    0.0000 </r>
       <r>    4.7590    0.0000 </r>
       <r>    4.7591    0.0000 </r>
       <r>    4.7591    0.0000 </r>
       <r>    4.7621    0.0000 </r>
       <r>    4.8108    0.0000 </r>
       <r>    4.8109    0.0000 </r>
       <r>    4.8109    0.0000 </r>
       <r>    4.8421    0.0000 </r>
       <r>    5.3096    0.0000 </r>
       <r>    5.3097    0.0000 </r>
       <r>    5.3100    0.0000 </r>
       <r>    5.3202    0.0000 </r>
       <r>    5.3203    0.0000 </r>
       <r>    5.3251    0.0000 </r>
       <r>    5.3252    0.0000 </r>
       <r>    5.3253    0.0000 </r>
       <r>    5.3334    0.0000 </r>
       <r>    5.3648    0.0000 </r>
       <r>    5.3649    0.0000 </r>
       <r>    5.3649    0.0000 </r>
       <r>    5.3731    0.0000 </r>
       <r>    5.3733    0.0000 </r>
       <r>    5.3734    0.0000 </r>
       <r>    5.3739    0.0000 </r>
       <r>    5.4336    0.0000 </r>
       <r>    5.4337    0.0000 </r>
       <r>    5.5274    0.0000 </r>
       <r>    6.0784    0.0000 </r>
       <r>    6.0784    0.0000 </r>
       <r>    6.0784    0.0000 </r>
       <r>    6.1002    0.0000 </r>
       <r>    6.1002    0.0000 </r>
       <r>    6.1003    0.0000 </r>
       <r>    6.1456    0.0000 </r>
       <r>    6.1460    0.0000 </r>
       <r>    6.1490    0.0000 </r>
       <r>    6.1491    0.0000 </r>
       <r>    6.1492    0.0000 </r>
       <r>    6.2465    0.0000 </r>
       <r>    6.2494    0.0000 </r>
       <r>    6.2567    0.0000 </r>
       <r>    6.2746    0.0000 </r>
      </set>
     </set>
    </set>
   </array>
  </eigenvalues>
  <separator name="orbital magnetization" >
   <v name="MAGDIPOLOUT">      0.00000000      0.00000000      0.00000000</v>
  </separator>
  <dos>
   <i name="efermi">      3.68157052 </i>
   <total>
    <array>
     <dimension dim="1">gridpoints</dimension>
     <dimension dim="2">spin</dimension>
     <field>energy</field>
     <field>total</field>
     <field>integrated</field>
     <set>
      <set comment="spin 1">
       <r>    -6.0778     0.0000     0.0000 </r>
       <r>    -6.0347     0.0000     0.0000 </r>
       <r>    -5.9915     0.0000     0.0000 </r>
       <r>    -5.9484     0.0000     0.0000 </r>
       <r>    -5.9052     0.0000     0.0000 </r>
       <r>    -5.8621     0.0000     0.0000 </r>
       <r>    -5.8190     0.0000     0.0000 </r>
       <r>    -5.7758     0.0000     0.0000 </r>
       <r>    -5.7327     0.0000     0.0000 </r>
       <r>    -5.6896     0.0000     0.0000 </r>
       <r>    -5.6464     0.0000     0.0000 </r>
       <r>    -5.6033     0.0000     0.0000 </r>
       <r>    -5.5602     0.0000     0.0000 </r>
       <r>    -5.5170     0.0024     0.0001 </r>
       <r>    -5.4739    45.7482     1.9735 </r>
       <r>    -5.4308     0.6152     2.0000 </r>
       <r>    -5.3876     0.0000     2.0000 </r>
       <r>    -5.3445     0.0000     2.0000 </r>
       <r>    -5.3014     0.0000     2.0000 </r>
       <r>    -5.2582     0.0000     2.0000 </r>
       <r>    -5.2151     0.0000     2.0000 </r>
       <r>    -5.1719     0.0000     2.0000 </r>
       <r>    -5.1288     0.0000     2.0000 </r>
       <r>    -5.0857     0.0000     2.0000 </r>
       <r>    -5.0425     0.0000     2.0000 </r>
       <r>    -4.9994     0.0000     2.0000 </r>
       <r>    -4.9563     0.0000     2.0000 </r>
       <r>    -4.9131     0.0000     2.0000 </r>
       <r>    -4.8700     0.0000     2.0000 </r>
       <r>    -4.8269     0.0000     2.0000 </r>
       <r>    -4.7837    21.8288     2.9416 </r>
       <r>    -4.7406   234.2507    13.0461 </r>
       <r>    -4.6975    22.1149    14.0000 </r>
       <r>    -4.6543     0.0000    14.0000 </r>
       <r>    -4.6112     0.0000    14.0000 </r>
       <r>    -4.5681     0.0000    14.0000 </r>
       <r>    -4.5249     0.0000    14.0000 </r>
       <r>    -4.4818     0.0000    14.0000 </r>
       <r>    -4.4386     0.0000    14.0000 </r>
       <r>    -4.3955     0.0000    14.0000 </r>
       <r>    -4.3524     0.0000    14.0000 </r>
       <r>    -4.3092     0.0000    14.0000 </r>
       <r>    -4.2661     0.0000    14.0000 </r>
       <r>    -4.2230     1.0816    14.0467 </r>
       <r>    -4.1798   477.4238    34.6405 </r>
       <r>    -4.1367    66.7448    37.5195 </r>
       <r>    -4.0936    11.1460    38.0003 </r>
       <r>    -4.0504   158.1030    44.8201 </r>
       <r>    -4.0073    27.3529    46.0000 </r>
       <r>    -3.9642     0.0000    46.0000 </r>
       <r>    -3.9210     0.0000    46.0000 </r>
       <r>    -3.8779     0.0000    46.0000 </r>
       <r>    -3.8348     0.0000    46.0000 </r>
       <r>    -3.7916     0.0000    46.0000 </r>
       <r>    -3.7485     0.0000    46.0000 </r>
       <r>    -3.7053     0.0000    46.0000 </r>
       <r>    -3.6622     0.0000    46.0000 </r>
       <r>    -3.6191     0.0000    46.0000 </r>
       <r>    -3.5759     0.0000    46.0000 </r>
       <r>    -3.5328     0.0196    46.0008 </r>
       <r>    -3.4897   133.2922    51.7504 </r>
       <r>    -3.4465   233.6834    61.8304 </r>
       <r>    -3.4034     5.4780    62.0667 </r>
       <r>    -3.3603    44.8181    64.0000 </r>
       <r>    -3.3171     0.0005    64.0000 </r>
       <r>    -3.2740     0.0000    64.0000 </r>
       <r>    -3.2309     0.0000    64.0000 </r>
       <r>    -3.1877     0.0000    64.0000 </r>
       <r>    -3.1446     0.0000    64.0000 </r>
       <r>    -3.1015     0.0000    64.0000 </r>
       <r>    -3.0583     0.0000    64.0000 </r>
       <r>    -3.0152     0.0000    64.0000 </r>
       <r>    -2.9720     0.0000    64.0000 </r>
       <r>    -2.9289     0.0000    64.0000 </r>
       <r>    -2.8858     0.0000    64.0000 </r>
       <r>    -2.8426     0.0000    64.0000 </r>
       <r>    -2.7995     0.0000    64.0000 </r>
       <r>    -2.7564     0.0000    64.0000 </r>
       <r>    -2.7132     0.0000    64.0000 </r>
       <r>    -2.6701     0.0000    64.0000 </r>
       <r>    -2.6270     0.0000    64.0000 </r>
       <r>    -2.5838     0.0000    64.0000 </r>
       <r>    -2.5407     0.0000    64.0000 </r>
       <r>    -2.4976     0.0000    64.0000 </r>
       <r>    -2.4544     0.0000    64.0000 </r>
       <r>    -2.4113     0.0000    64.0000 </r>
       <r>    -2.3682     0.0000    64.0000 </r>
       <r>    -2.3250     0.0000    64.0000 </r>
       <r>    -2.2819     0.0000    64.0000 </r>
       <r>    -2.2387     0.0000    64.0000 </r>
       <r>    -2.1956     0.0000    64.0000 </r>
       <r>    -2.1525     0.0000    64.0000 </r>
       <r>    -2.1093     0.0000    64.0000 </r>
       <r>    -2.0662     0.0000    64.0000 </r>
       <r>    -2.0231     0.0000    64.0000 </r>
       <r>    -1.9799     0.0000    64.0000 </r>
       <r>    -1.9368     0.0000    64.0000 </r>
       <r>    -1.8937     0.0000    64.0000 </r>
       <r>    -1.8505     0.0000    64.0000 </r>
       <r>    -1.8074     0.0000    64.0000 </r>
       <r>    -1.7643     0.0000    64.0000 </r>
       <r>    -1.7211     0.0000    64.0000 </r>
       <r>    -1.6780     0.0000    64.0000 </r>
       <r>    -1.6349     0.0000    64.0000 </r>
       <r>    -1.5917     0.0000    64.0000 </r>
       <r>    -1.5486     0.0000    64.0000 </r>
       <r>    -1.5054     0.0000    64.0000 </r>
       <r>    -1.4623     0.0000    64.0000 </r>
       <r>    -1.4192     0.0000    64.0000 </r>
       <r>    -1.3760     0.0000    64.0000 </r>
       <r>    -1.3329     0.0000    64.0000 </r>
       <r>    -1.2898     0.0000    64.0000 </r>
       <r>    -1.2466     0.0000    64.0000 </r>
       <r>    -1.2035     3.1132    64.1343 </r>
       <r>    -1.1604    94.6533    68.2172 </r>
       <r>    -1.1172    87.6965    72.0000 </r>
       <r>    -1.0741     0.0000    72.0000 </r>
       <r>    -1.0310     0.0000    72.0000 </r>
       <r>    -0.9878     0.0000    72.0000 </r>
       <r>    -0.9447     0.0000    72.0000 </r>
       <r>    -0.9016     0.0000    72.0000 </r>
       <r>    -0.8584     2.8215    72.1217 </r>
       <r>    -0.8153   136.2723    77.9998 </r>
       <r>    -0.7721     0.0035    78.0000 </r>
       <r>    -0.7290     0.0000    78.0000 </r>
       <r>    -0.6859     0.0000    78.0000 </r>
       <r>    -0.6427     0.0000    78.0000 </r>
       <r>    -0.5996     0.0000    78.0000 </r>
       <r>    -0.5565     0.0000    78.0000 </r>
       <r>    -0.5133     0.0000    78.0000 </r>
       <r>    -0.4702     0.0000    78.0000 </r>
       <r>    -0.4271     0.0000    78.0000 </r>
       <r>    -0.3839     0.0000    78.0000 </r>
       <r>    -0.3408     0.0000    78.0000 </r>
       <r>    -0.2977     0.0000    78.0000 </r>
       <r>    -0.2545     0.0000    78.0000 </r>
       <r>    -0.2114     0.0000    78.0000 </r>
       <r>    -0.1683     0.0000    78.0000 </r>
       <r>    -0.1251     0.0000    78.0000 </r>
       <r>    -0.0820     0.0000    78.0000 </r>
       <r>    -0.0388   147.6314    84.3681 </r>
       <r>     0.0043   426.1713   102.7511 </r>
       <r>     0.0474   377.4006   119.0304 </r>
       <r>     0.0906   161.5351   125.9983 </r>
       <r>     0.1337     0.0398   126.0000 </r>
       <r>     0.1768     0.0000   126.0000 </r>
       <r>     0.2200     0.0000   126.0000 </r>
       <r>     0.2631     0.0000   126.0000 </r>
       <r>     0.3062     0.0000   126.0000 </r>
       <r>     0.3494     0.0000   126.0000 </r>
       <r>     0.3925     0.0000   126.0000 </r>
       <r>     0.4356     0.0000   126.0000 </r>
       <r>     0.4788     0.0000   126.0000 </r>
       <r>     0.5219     0.0000   126.0000 </r>
       <r>     0.5650     0.0000   126.0000 </r>
       <r>     0.6082     0.0000   126.0000 </r>
       <r>     0.6513     0.0000   126.0000 </r>
       <r>     0.6945     0.0000   126.0000 </r>
       <r>     0.7376     0.0178   126.0008 </r>
       <r>     0.7807   183.6740   133.9236 </r>
       <r>     0.8239   372.4372   149.9888 </r>
       <r>     0.8670     0.2600   150.0000 </r>
       <r>     0.9101     5.1136   150.2206 </r>
       <r>     0.9533   203.9847   159.0195 </r>
       <r>     0.9964    69.0962   162.0000 </r>
       <r>     1.0395     0.0000   162.0000 </r>
       <r>     1.0827     0.0000   162.0000 </r>
       <r>     1.1258     0.0000   162.0000 </r>
       <r>     1.1689    58.3273   164.5160 </r>
       <r>     1.2121   175.2330   172.0747 </r>
       <r>     1.2552    44.6338   174.0000 </r>
       <r>     1.2983     0.0004   174.0000 </r>
       <r>     1.3415     0.0000   174.0000 </r>
       <r>     1.3846     0.0000   174.0000 </r>
       <r>     1.4278     0.0000   174.0000 </r>
       <r>     1.4709     0.0000   174.0000 </r>
       <r>     1.5140     0.0000   174.0000 </r>
       <r>     1.5572     0.0000   174.0000 </r>
       <r>     1.6003     0.0000   174.0000 </r>
       <r>     1.6434    37.7575   175.6287 </r>
       <r>     1.6866   240.4369   186.0000 </r>
       <r>     1.7297     0.0001   186.0000 </r>
       <r>     1.7728     0.0000   186.0000 </r>
       <r>     1.8160     0.0000   186.0000 </r>
       <r>     1.8591     0.0000   186.0000 </r>
       <r>     1.9022     0.0000   186.0000 </r>
       <r>     1.9454     0.0000   186.0000 </r>
       <r>     1.9885     0.0000   186.0000 </r>
       <r>     2.0316     0.0000   186.0000 </r>
       <r>     2.0748     0.0000   186.0000 </r>
       <r>     2.1179     0.0000   186.0000 </r>
       <r>     2.1611     0.0000   186.0000 </r>
       <r>     2.2042     0.0000   186.0000 </r>
       <r>     2.2473     0.0000   186.0000 </r>
       <r>     2.2905     0.0001   186.0000 </r>
       <r>     2.3336   303.5339   199.0930 </r>
       <r>     2.3767   149.7691   205.5534 </r>
       <r>     2.4199   103.0859   210.0000 </r>
       <r>     2.4630     0.0000   210.0000 </r>
       <r>     2.5061     0.0000   210.0000 </r>
       <r>     2.5493     0.0000   210.0000 </r>
       <r>     2.5924     0.0000   210.0000 </r>
       <r>     2.6355     0.0000   210.0000 </r>
       <r>     2.6787     0.0000   210.0000 </r>
       <r>     2.7218     0.0000   210.0000 </r>
       <r>     2.7649    58.6093   212.5281 </r>
       <r>     2.8081   358.6307   227.9978 </r>
       <r>     2.8512   139.8765   234.0314 </r>
       <r>     2.8944   157.3015   240.8166 </r>
       <r>     2.9375    73.7999   244.0000 </r>
       <r>     2.9806    78.5003   247.3861 </r>
       <r>     3.0238    60.5970   250.0000 </r>
       <r>     3.0669     0.0000   250.0000 </r>
       <r>     3.1100     0.0000   250.0000 </r>
       <r>     3.1532     0.0000   250.0000 </r>
       <r>     3.1963     0.0000   250.0000 </r>
       <r>     3.2394     0.0000   250.0000 </r>
       <r>     3.2826     0.0000   250.0000 </r>
       <r>     3.3257     0.0000   250.0000 </r>
       <r>     3.3688     0.0000   250.0000 </r>
       <r>     3.4120     0.0000   250.0000 </r>
       <r>     3.4551     0.0000   250.0000 </r>
       <r>     3.4982     0.0000   250.0000 </r>
       <r>     3.5414     0.0000   250.0000 </r>
       <r>     3.5845     0.0000   250.0000 </r>
       <r>     3.6277   113.9012   254.9132 </r>
       <r>     3.6708    25.1960   256.0000 </r>
       <r>     3.7139     0.0000   256.0000 </r>
       <r>     3.7571    37.8948   257.6346 </r>
       <r>     3.8002    86.6101   261.3706 </r>
       <r>     3.8433    14.5924   262.0000 </r>
       <r>     3.8865     0.0000   262.0000 </r>
       <r>     3.9296     0.1001   262.0043 </r>
       <r>     3.9727   138.7487   267.9893 </r>
       <r>     4.0159     0.2485   268.0000 </r>
       <r>     4.0590     0.0000   268.0000 </r>
       <r>     4.1021     0.0000   268.0000 </r>
       <r>     4.1453     0.0000   268.0000 </r>
       <r>     4.1884     0.0000   268.0000 </r>
       <r>     4.2315     0.0000   268.0000 </r>
       <r>     4.2747     0.0000   268.0000 </r>
       <r>     4.3178     0.0000   268.0000 </r>
       <r>     4.3610     0.0000   268.0000 </r>
       <r>     4.4041     0.0000   268.0000 </r>
       <r>     4.4472     0.0000   268.0000 </r>
       <r>     4.4904     0.0000   268.0000 </r>
       <r>     4.5335     0.0000   268.0000 </r>
       <r>     4.5766     0.0000   268.0000 </r>
       <r>     4.6198     0.0000   268.0000 </r>
       <r>     4.6629     0.0000   268.0000 </r>
       <r>     4.7060     0.1367   268.0059 </r>
       <r>     4.7492   105.3428   272.5499 </r>
       <r>     4.7923   173.3152   280.0259 </r>
       <r>     4.8354   146.5658   286.3480 </r>
       <r>     4.8786    38.2970   288.0000 </r>
       <r>     4.9217     0.0000   288.0000 </r>
       <r>     4.9648     0.0000   288.0000 </r>
       <r>     5.0080     0.0000   288.0000 </r>
       <r>     5.0511     0.0000   288.0000 </r>
       <r>     5.0943     0.0000   288.0000 </r>
       <r>     5.1374     0.0000   288.0000 </r>
       <r>     5.1805     0.0000   288.0000 </r>
       <r>     5.2237     0.0000   288.0000 </r>
       <r>     5.2668     0.0000   288.0000 </r>
       <r>     5.3099    79.5969   291.4334 </r>
       <r>     5.3531   344.5735   306.2967 </r>
       <r>     5.3962   317.5625   319.9949 </r>
       <r>     5.4393    73.3286   323.1579 </r>
       <r>     5.4825    19.5222   324.0000 </r>
       <r>     5.5256    18.5807   324.8015 </r>
       <r>     5.5687    27.7851   326.0000 </r>
       <r>     5.6119     0.0000   326.0000 </r>
       <r>     5.6550     0.0000   326.0000 </r>
       <r>     5.6981     0.0000   326.0000 </r>
       <r>     5.7413     0.0000   326.0000 </r>
       <r>     5.7844     0.0000   326.0000 </r>
       <r>     5.8276     0.0000   326.0000 </r>
       <r>     5.8707     0.0000   326.0000 </r>
       <r>     5.9138     0.0000   326.0000 </r>
       <r>     5.9570     0.0000   326.0000 </r>
       <r>     6.0001     0.0000   326.0000 </r>
       <r>     6.0432     0.0000   326.0000 </r>
       <r>     6.0864   124.5296   331.3716 </r>
       <r>     6.1295   155.0294   338.0589 </r>
       <r>     6.1726   230.3978   347.9971 </r>
       <r>     6.2158     0.0669   348.0000 </r>
       <r>     6.2589   116.3233   353.0177 </r>
       <r>     6.3020    69.1369   355.9999 </r>
       <r>     6.3452     0.0024   356.0000 </r>
       <r>     6.3883     0.0000   356.0000 </r>
       <r>     6.4314     0.0000   356.0000 </r>
       <r>     6.4746     0.0000   356.0000 </r>
       <r>     6.5177     0.0000   356.0000 </r>
       <r>     6.5609     0.0000   356.0000 </r>
       <r>     6.6040     0.0000   356.0000 </r>
       <r>     6.6471     0.0000   356.0000 </r>
       <r>     6.6903     0.0000   356.0000 </r>
       <r>     6.7334     0.0000   356.0000 </r>
       <r>     6.7765     0.0000   356.0000 </r>
       <r>     6.8197     0.0000   356.0000 </r>
       <r>     6.8628     0.0000   356.0000 </r>
      </set>
     </set>
    </array>
   </total>
  </dos>
 </calculation>
 <structure name="finalpos" >
  <crystal>
   <varray name="basis" >
    <v>      12.74739769       0.00000000       0.00000000 </v>
    <v>       0.00000000      12.74739769       0.00000000 </v>
    <v>       0.00000000       0.00000000      12.74739769 </v>
   </varray>
   <i name="volume">   2071.40301882 </i>
   <varray name="rec_basis" >
    <v>       0.07844738       0.00000000       0.00000000 </v>
    <v>       0.00000000       0.07844738       0.00000000 </v>
    <v>       0.00000000       0.00000000       0.07844738 </v>
   </varray>
  </crystal>
  <varray name="positions" >
   <v>       0.00000000       0.00000000       0.00000000 </v>
   <v>       0.50000000       0.00000000       0.00000000 </v>
   <v>       0.00000000       0.50000000       0.00000000 </v>
   <v>       0.50000000       0.50000000       0.00000000 </v>
   <v>       0.00000000       0.00000000       0.50000000 </v>
   <v>       0.50000000       0.00000000       0.50000000 </v>
   <v>       0.00000000       0.50000000       0.50000000 </v>
   <v>       0.50000000       0.50000000       0.50000000 </v>
   <v>       0.25084822       0.25140293       0.99944529 </v>
   <v>       0.74859707       0.25140293       0.00000000 </v>
   <v>       0.25140293       0.74859707       0.00000000 </v>
   <v>       0.74859707       0.74859707       0.00000000 </v>
   <v>       0.25012668       0.25012668       0.50000000 </v>
   <v>       0.74987332       0.25012668       0.50000000 </v>
   <v>       0.25012668       0.74987332       0.50000000 </v>
   <v>       0.74987332       0.74987332       0.50000000 </v>
   <v>       0.25140293       0.00000000       0.25140293 </v>
   <v>       0.74859707       0.00000000       0.25140293 </v>
   <v>       0.25012668       0.50000000       0.25012668 </v>
   <v>       0.74987332       0.50000000       0.25012668 </v>
   <v>       0.25140293       0.00000000       0.74859707 </v>
   <v>       0.74859707       0.00000000       0.74859707 </v>
   <v>       0.25012668       0.50000000       0.74987332 </v>
   <v>       0.74987332       0.50000000       0.74987332 </v>
   <v>       0.00000000       0.25140293       0.25140293 </v>
   <v>       0.50000000       0.25012668       0.25012668 </v>
   <v>       0.00000000       0.74859707       0.25140293 </v>
   <v>       0.50000000       0.74987332       0.25012668 </v>
   <v>       0.00000000       0.25140293       0.74859707 </v>
   <v>       0.50000000       0.25012668       0.74987332 </v>
   <v>       0.00000000       0.74859707       0.74859707 </v>
   <v>       0.50000000       0.74987332       0.74987332 </v>
   <v>       0.12960836       0.12960836       0.12960836 </v>
   <v>       0.62421357       0.12507203       0.12507203 </v>
   <v>       0.12507203       0.62421357       0.12507203 </v>
   <v>       0.62455273       0.62455273       0.12469540 </v>
   <v>       0.12507203       0.12507203       0.62421357 </v>
   <v>       0.62455273       0.12469540       0.62455273 </v>
   <v>       0.12469540       0.62455273       0.62455273 </v>
   <v>       0.62508239       0.62508239       0.62508239 </v>
   <v>       0.37578643       0.12507203       0.12507203 </v>
   <v>       0.87039164       0.12960836       0.12960836 </v>
   <v>       0.37544727       0.62455273       0.12469540 </v>
   <v>       0.87492797       0.62421357       0.12507203 </v>
   <v>       0.37544727       0.12469540       0.62455273 </v>
   <v>       0.87492797       0.12507203       0.62421357 </v>
   <v>       0.37491761       0.62508239       0.62508239 </v>
   <v>       0.87530460       0.62455273       0.62455273 </v>
   <v>       0.12507203       0.37578643       0.12507203 </v>
   <v>       0.62455273       0.37544727       0.12469540 </v>
   <v>       0.12960836       0.87039164       0.12960836 </v>
   <v>       0.62421357       0.87492797       0.12507203 </v>
   <v>       0.12469540       0.37544727       0.62455273 </v>
   <v>       0.62508239       0.37491761       0.62508239 </v>
   <v>       0.12507203       0.87492797       0.62421357 </v>
   <v>       0.62455273       0.87530460       0.62455273 </v>
   <v>       0.37544727       0.37544727       0.12469540 </v>
   <v>       0.87492797       0.37578643       0.12507203 </v>
   <v>       0.37578643       0.87492797       0.12507203 </v>
   <v>       0.87039164       0.87039164       0.12960836 </v>
   <v>       0.37491761       0.37491761       0.62508239 </v>
   <v>       0.87530460       0.37544727       0.62455273 </v>
   <v>       0.37544727       0.87530460       0.62455273 </v>
   <v>       0.87492797       0.87492797       0.62421357 </v>
   <v>       0.12507203       0.12507203       0.37578643 </v>
   <v>       0.62455273       0.12469540       0.37544727 </v>
   <v>       0.12469540       0.62455273       0.37544727 </v>
   <v>       0.62508239       0.62508239       0.37491761 </v>
   <v>       0.12960836       0.12960836       0.87039164 </v>
   <v>       0.62421357       0.12507203       0.87492797 </v>
   <v>       0.12507203       0.62421357       0.87492797 </v>
   <v>       0.62455273       0.62455273       0.87530460 </v>
   <v>       0.37544727       0.12469540       0.37544727 </v>
   <v>       0.87492797       0.12507203       0.37578643 </v>
   <v>       0.37491761       0.62508239       0.37491761 </v>
   <v>       0.87530460       0.62455273       0.37544727 </v>
   <v>       0.37578643       0.12507203       0.87492797 </v>
   <v>       0.87039164       0.12960836       0.87039164 </v>
   <v>       0.37544727       0.62455273       0.87530460 </v>
   <v>       0.87492797       0.62421357       0.87492797 </v>
   <v>       0.12469540       0.37544727       0.37544727 </v>
   <v>       0.62508239       0.37491761       0.37491761 </v>
   <v>       0.12507203       0.87492797       0.37578643 </v>
   <v>       0.62455273       0.87530460       0.37544727 </v>
   <v>       0.12507203       0.37578643       0.87492797 </v>
   <v>       0.62455273       0.37544727       0.87530460 </v>
   <v>       0.12960836       0.87039164       0.87039164 </v>
   <v>       0.62421357       0.87492797       0.87492797 </v>
   <v>       0.37491761       0.37491761       0.37491761 </v>
   <v>       0.87530460       0.37544727       0.37544727 </v>
   <v>       0.37544727       0.87530460       0.37544727 </v>
   <v>       0.87492797       0.87492797       0.37578643 </v>
   <v>       0.37544727       0.37544727       0.87530460 </v>
   <v>       0.87492797       0.37578643       0.87492797 </v>
   <v>       0.37578643       0.87492797       0.87492797 </v>
   <v>       0.87039164       0.87039164       0.87039164 </v>
  </varray>
 </structure>
</modeling>
