<?xml version="1.0" encoding="ISO-8859-1"?>
<modeling>
 <generator>
  <i name="program" type="string">vasp </i>
  <i name="version" type="string">5.4.4.18Apr17-6-g9f103f2a35  </i>
  <i name="subversion" type="string">(build Apr 28 2017 11:12:57) complex            parallel </i>
  <i name="platform" type="string">LinuxIFC </i>
  <i name="date" type="string">2018 06 27 </i>
  <i name="time" type="string">23:38:20 </i>
 </generator>
 <incar>
  <i type="string" name="PREC">accurate</i>
  <i type="int" name="IALGO">    38</i>
  <i type="int" name="IBRION">    -1</i>
  <i name="EDIFF">      0.00000001</i>
  <i type="int" name="ISYM">     0</i>
  <i name="ENCUT">    270.00000000</i>
  <i type="logical" name="LREAL"> F  </i>
  <i type="int" name="ISMEAR">     0</i>
  <i name="SIGMA">      0.01000000</i>
  <i type="logical" name="LWAVE"> F  </i>
  <i type="logical" name="LCHARG"> F  </i>
  <v type="int" name="KPOINT_BSE">    -1     0     0     0</v>
 </incar>
 <structure name="primitive_cell" >
  <crystal>
   <varray name="basis" >
    <v>      12.74739769       0.00000000       0.00000000 </v>
    <v>       0.00000000      12.74739769       0.00000000 </v>
    <v>       0.00000000       0.00000000      12.74739769 </v>
   </varray>
   <i name="volume">   2071.40301882 </i>
   <varray name="rec_basis" >
    <v>       0.07844738       0.00000000       0.00000000 </v>
    <v>       0.00000000       0.07844738       0.00000000 </v>
    <v>       0.00000000       0.00000000       0.07844738 </v>
   </varray>
  </crystal>
  <varray name="positions" >
   <v>       0.00000000       0.00000000       0.00000000 </v>
   <v>       0.12960836       0.12960836       0.12960836 </v>
   <v>      -0.12960836       0.12960836       0.12960836 </v>
   <v>       0.12960836      -0.12960836       0.12960836 </v>
   <v>      -0.12960836      -0.12960836       0.12960836 </v>
   <v>       0.12960836       0.12960836      -0.12960836 </v>
   <v>      -0.12960836       0.12960836      -0.12960836 </v>
   <v>       0.12960836      -0.12960836      -0.12960836 </v>
   <v>      -0.12960836      -0.12960836      -0.12960836 </v>
   <v>       0.25140293       0.25140293       0.00000000 </v>
   <v>      -0.25140293       0.25140293       0.00000000 </v>
   <v>       0.25140293      -0.25140293       0.00000000 </v>
   <v>      -0.25140293      -0.25140293       0.00000000 </v>
   <v>       0.25140293       0.00000000       0.25140293 </v>
   <v>      -0.25140293       0.00000000       0.25140293 </v>
   <v>       0.25140293       0.00000000      -0.25140293 </v>
   <v>      -0.25140293       0.00000000      -0.25140293 </v>
   <v>       0.00000000       0.25140293       0.25140293 </v>
   <v>       0.00000000      -0.25140293       0.25140293 </v>
   <v>       0.00000000       0.25140293      -0.25140293 </v>
   <v>       0.00000000      -0.25140293      -0.25140293 </v>
   <v>      -0.37578643       0.12507203       0.12507203 </v>
   <v>       0.12507203      -0.37578643       0.12507203 </v>
   <v>       0.12507203       0.12507203      -0.37578643 </v>
   <v>       0.37578643       0.12507203       0.12507203 </v>
   <v>      -0.12507203      -0.37578643       0.12507203 </v>
   <v>      -0.12507203       0.12507203      -0.37578643 </v>
   <v>       0.12507203       0.37578643       0.12507203 </v>
   <v>      -0.37578643      -0.12507203       0.12507203 </v>
   <v>       0.12507203      -0.12507203      -0.37578643 </v>
   <v>      -0.12507203       0.37578643       0.12507203 </v>
   <v>       0.37578643      -0.12507203       0.12507203 </v>
   <v>      -0.12507203      -0.12507203      -0.37578643 </v>
   <v>       0.12507203       0.12507203       0.37578643 </v>
   <v>      -0.37578643       0.12507203      -0.12507203 </v>
   <v>       0.12507203      -0.37578643      -0.12507203 </v>
   <v>      -0.12507203       0.12507203       0.37578643 </v>
   <v>       0.37578643       0.12507203      -0.12507203 </v>
   <v>      -0.12507203      -0.37578643      -0.12507203 </v>
   <v>       0.12507203      -0.12507203       0.37578643 </v>
   <v>       0.12507203       0.37578643      -0.12507203 </v>
   <v>      -0.37578643      -0.12507203      -0.12507203 </v>
   <v>      -0.12507203      -0.12507203       0.37578643 </v>
   <v>      -0.12507203       0.37578643      -0.12507203 </v>
   <v>       0.37578643      -0.12507203      -0.12507203 </v>
   <v>      -0.50000000       0.00000000       0.00000000 </v>
   <v>       0.00000000      -0.50000000       0.00000000 </v>
   <v>       0.00000000       0.00000000      -0.50000000 </v>
   <v>      -0.37544727      -0.37544727       0.12469540 </v>
   <v>      -0.37544727       0.12469540      -0.37544727 </v>
   <v>       0.12469540      -0.37544727      -0.37544727 </v>
   <v>       0.37544727      -0.37544727       0.12469540 </v>
   <v>       0.37544727       0.12469540      -0.37544727 </v>
   <v>      -0.12469540      -0.37544727      -0.37544727 </v>
   <v>      -0.37544727       0.37544727       0.12469540 </v>
   <v>       0.12469540       0.37544727      -0.37544727 </v>
   <v>      -0.37544727      -0.12469540      -0.37544727 </v>
   <v>       0.37544727       0.37544727       0.12469540 </v>
   <v>      -0.12469540       0.37544727      -0.37544727 </v>
   <v>       0.37544727      -0.12469540      -0.37544727 </v>
   <v>      -0.37544727       0.12469540       0.37544727 </v>
   <v>       0.12469540      -0.37544727       0.37544727 </v>
   <v>      -0.37544727      -0.37544727      -0.12469540 </v>
   <v>       0.37544727       0.12469540       0.37544727 </v>
   <v>      -0.12469540      -0.37544727       0.37544727 </v>
   <v>       0.37544727      -0.37544727      -0.12469540 </v>
   <v>       0.12469540       0.37544727       0.37544727 </v>
   <v>      -0.37544727      -0.12469540       0.37544727 </v>
   <v>      -0.37544727       0.37544727      -0.12469540 </v>
   <v>      -0.12469540       0.37544727       0.37544727 </v>
   <v>       0.37544727      -0.12469540       0.37544727 </v>
   <v>       0.37544727       0.37544727      -0.12469540 </v>
   <v>       0.25012668       0.25012668      -0.50000000 </v>
   <v>      -0.25012668       0.25012668      -0.50000000 </v>
   <v>       0.25012668      -0.25012668      -0.50000000 </v>
   <v>      -0.25012668      -0.25012668      -0.50000000 </v>
   <v>       0.25012668      -0.50000000       0.25012668 </v>
   <v>      -0.25012668      -0.50000000       0.25012668 </v>
   <v>       0.25012668      -0.50000000      -0.25012668 </v>
   <v>      -0.25012668      -0.50000000      -0.25012668 </v>
   <v>      -0.50000000       0.25012668       0.25012668 </v>
   <v>      -0.50000000      -0.25012668       0.25012668 </v>
   <v>      -0.50000000       0.25012668      -0.25012668 </v>
   <v>      -0.50000000      -0.25012668      -0.25012668 </v>
   <v>      -0.37413314      -0.37491761      -0.37491761 </v>
   <v>       0.37491761      -0.37491761      -0.37491761 </v>
   <v>      -0.37491761       0.37491761      -0.37491761 </v>
   <v>       0.37491761       0.37491761      -0.37491761 </v>
   <v>      -0.37491761      -0.37491761       0.37491761 </v>
   <v>       0.37491761      -0.37491761       0.37491761 </v>
   <v>      -0.37491761       0.37491761       0.37491761 </v>
   <v>       0.37491761       0.37491761       0.37491761 </v>
   <v>      -0.50000000      -0.50000000       0.00000000 </v>
   <v>      -0.50000000       0.00000000      -0.50000000 </v>
   <v>       0.00000000      -0.50000000      -0.50000000 </v>
   <v>      -0.50000000      -0.50000000      -0.50000000 </v>
  </varray>
 </structure>
 <varray name="primitive_index" >
  <v type="int" >        1 </v>
  <v type="int" >       33 </v>
  <v type="int" >       42 </v>
  <v type="int" >       51 </v>
  <v type="int" >       60 </v>
  <v type="int" >       69 </v>
  <v type="int" >       78 </v>
  <v type="int" >       87 </v>
  <v type="int" >       96 </v>
  <v type="int" >        9 </v>
  <v type="int" >       10 </v>
  <v type="int" >       11 </v>
  <v type="int" >       12 </v>
  <v type="int" >       17 </v>
  <v type="int" >       18 </v>
  <v type="int" >       21 </v>
  <v type="int" >       22 </v>
  <v type="int" >       25 </v>
  <v type="int" >       27 </v>
  <v type="int" >       29 </v>
  <v type="int" >       31 </v>
  <v type="int" >       34 </v>
  <v type="int" >       35 </v>
  <v type="int" >       37 </v>
  <v type="int" >       41 </v>
  <v type="int" >       44 </v>
  <v type="int" >       46 </v>
  <v type="int" >       49 </v>
  <v type="int" >       52 </v>
  <v type="int" >       55 </v>
  <v type="int" >       58 </v>
  <v type="int" >       59 </v>
  <v type="int" >       64 </v>
  <v type="int" >       65 </v>
  <v type="int" >       70 </v>
  <v type="int" >       71 </v>
  <v type="int" >       74 </v>
  <v type="int" >       77 </v>
  <v type="int" >       80 </v>
  <v type="int" >       83 </v>
  <v type="int" >       85 </v>
  <v type="int" >       88 </v>
  <v type="int" >       92 </v>
  <v type="int" >       94 </v>
  <v type="int" >       95 </v>
  <v type="int" >        2 </v>
  <v type="int" >        3 </v>
  <v type="int" >        5 </v>
  <v type="int" >       36 </v>
  <v type="int" >       38 </v>
  <v type="int" >       39 </v>
  <v type="int" >       43 </v>
  <v type="int" >       45 </v>
  <v type="int" >       48 </v>
  <v type="int" >       50 </v>
  <v type="int" >       53 </v>
  <v type="int" >       56 </v>
  <v type="int" >       57 </v>
  <v type="int" >       62 </v>
  <v type="int" >       63 </v>
  <v type="int" >       66 </v>
  <v type="int" >       67 </v>
  <v type="int" >       72 </v>
  <v type="int" >       73 </v>
  <v type="int" >       76 </v>
  <v type="int" >       79 </v>
  <v type="int" >       81 </v>
  <v type="int" >       84 </v>
  <v type="int" >       86 </v>
  <v type="int" >       90 </v>
  <v type="int" >       91 </v>
  <v type="int" >       93 </v>
  <v type="int" >       13 </v>
  <v type="int" >       14 </v>
  <v type="int" >       15 </v>
  <v type="int" >       16 </v>
  <v type="int" >       19 </v>
  <v type="int" >       20 </v>
  <v type="int" >       23 </v>
  <v type="int" >       24 </v>
  <v type="int" >       26 </v>
  <v type="int" >       28 </v>
  <v type="int" >       30 </v>
  <v type="int" >       32 </v>
  <v type="int" >       40 </v>
  <v type="int" >       47 </v>
  <v type="int" >       54 </v>
  <v type="int" >       61 </v>
  <v type="int" >       68 </v>
  <v type="int" >       75 </v>
  <v type="int" >       82 </v>
  <v type="int" >       89 </v>
  <v type="int" >        4 </v>
  <v type="int" >        6 </v>
  <v type="int" >        7 </v>
  <v type="int" >        8 </v>
 </varray>
 <kpoints>
  <generation param="Gamma">
   <v type="int" name="divisions">       1        1        1 </v>
   <v name="usershift">      0.00000000       0.00000000       0.00000000 </v>
   <v name="genvec1">      1.00000000       0.00000000       0.00000000 </v>
   <v name="genvec2">      0.00000000       1.00000000       0.00000000 </v>
   <v name="genvec3">      0.00000000       0.00000000       1.00000000 </v>
   <v name="shift">      0.00000000       0.00000000       0.00000000 </v>
  </generation>
  <varray name="kpointlist" >
   <v>       0.00000000       0.00000000       0.00000000 </v>
  </varray>
  <varray name="weights" >
   <v>       1.00000000 </v>
  </varray>
 </kpoints>
 <parameters>
  <separator name="general" >
   <i type="string" name="SYSTEM">unknown system</i>
   <i type="logical" name="LCOMPAT"> F  </i>
  </separator>
  <separator name="electronic" >
   <i type="string" name="PREC">accura</i>
   <i name="ENMAX">    270.00000000</i>
   <i name="ENAUG">    454.73400000</i>
   <i name="EDIFF">      0.00000001</i>
   <i type="int" name="IALGO">    38</i>
   <i type="int" name="IWAVPR">    10</i>
   <i type="int" name="NBANDS">   178</i>
   <i name="NELECT">    256.00000000</i>
   <i type="int" name="TURBO">     0</i>
   <i type="int" name="IRESTART">     0</i>
   <i type="int" name="NREBOOT">     0</i>
   <i type="int" name="NMIN">     0</i>
   <i name="EREF">      0.00000000</i>
   <separator name="electronic smearing" >
    <i type="int" name="ISMEAR">     0</i>
    <i name="SIGMA">      0.01000000</i>
    <i name="KSPACING">      0.50000000</i>
    <i type="logical" name="KGAMMA"> T  </i>
   </separator>
   <separator name="electronic projectors" >
    <i type="logical" name="LREAL"> F  </i>
    <v name="ROPT">      0.00000000      0.00000000      0.00000000</v>
    <i type="int" name="LMAXPAW">  -100</i>
    <i type="int" name="LMAXMIX">     2</i>
    <i type="logical" name="NLSPLINE"> F  </i>
   </separator>
   <separator name="electronic startup" >
    <i type="int" name="ISTART">     0</i>
    <i type="int" name="ICHARG">     2</i>
    <i type="int" name="INIWAV">     1</i>
   </separator>
   <separator name="electronic spin" >
    <i type="int" name="ISPIN">     1</i>
    <i type="logical" name="LNONCOLLINEAR"> F  </i>
    <v name="MAGMOM">      1.00000000      1.00000000      1.00000000      1.00000000      1.00000000      1.00000000      1.00000000      1.00000000      1.00000000      1.00000000      1.00000000      1.00000000      1.00000000      1.00000000      1.00000000      1.00000000      1.00000000      1.00000000      1.00000000      1.00000000
      1.00000000      1.00000000      1.00000000      1.00000000      1.00000000      1.00000000      1.00000000      1.00000000      1.00000000      1.00000000      1.00000000      1.00000000      1.00000000      1.00000000      1.00000000      1.00000000      1.00000000      1.00000000      1.00000000      1.00000000
      1.00000000      1.00000000      1.00000000      1.00000000      1.00000000      1.00000000      1.00000000      1.00000000      1.00000000      1.00000000      1.00000000      1.00000000      1.00000000      1.00000000      1.00000000      1.00000000      1.00000000      1.00000000      1.00000000      1.00000000
      1.00000000      1.00000000      1.00000000      1.00000000      1.00000000      1.00000000      1.00000000      1.00000000      1.00000000      1.00000000      1.00000000      1.00000000      1.00000000      1.00000000      1.00000000      1.00000000      1.00000000      1.00000000      1.00000000      1.00000000
      1.00000000      1.00000000      1.00000000      1.00000000      1.00000000      1.00000000      1.00000000      1.00000000      1.00000000      1.00000000      1.00000000      1.00000000      1.00000000      1.00000000      1.00000000      1.00000000</v>
    <i name="NUPDOWN">     -1.00000000</i>
    <i type="logical" name="LSORBIT"> F  </i>
    <v name="SAXIS">      0.00000000      0.00000000      1.00000000</v>
    <i type="logical" name="LSPIRAL"> F  </i>
    <v name="QSPIRAL">      0.00000000      0.00000000      0.00000000</v>
    <i type="logical" name="LZEROZ"> F  </i>
   </separator>
   <separator name="electronic exchange-correlation" >
    <i type="logical" name="LASPH"> F  </i>
    <i type="logical" name="LMETAGGA"> F  </i>
   </separator>
   <separator name="electronic convergence" >
    <i type="int" name="NELM">    60</i>
    <i type="int" name="NELMDL">    -5</i>
    <i type="int" name="NELMIN">     2</i>
    <i name="ENINI">    270.00000000</i>
    <separator name="electronic convergence detail" >
     <i type="logical" name="LDIAG"> T  </i>
     <i type="logical" name="LSUBROT"> F  </i>
     <i name="WEIMIN">      0.00000000</i>
     <i name="EBREAK">      0.00000000</i>
     <i name="DEPER">      0.30000000</i>
     <i type="int" name="NRMM">     4</i>
     <i name="TIME">      0.40000000</i>
    </separator>
   </separator>
   <separator name="electronic mixer" >
    <i name="AMIX">      0.40000000</i>
    <i name="BMIX">      1.00000000</i>
    <i name="AMIN">      0.10000000</i>
    <i name="AMIX_MAG">      1.60000000</i>
    <i name="BMIX_MAG">      1.00000000</i>
    <separator name="electronic mixer details" >
     <i type="int" name="IMIX">     4</i>
     <i type="logical" name="MIXFIRST"> F  </i>
     <i type="int" name="MAXMIX">   -45</i>
     <i name="WC">    100.00000000</i>
     <i type="int" name="INIMIX">     1</i>
     <i type="int" name="MIXPRE">     1</i>
     <i type="int" name="MREMOVE">     5</i>
    </separator>
   </separator>
   <separator name="electronic dipolcorrection" >
    <i type="logical" name="LDIPOL"> F  </i>
    <i type="logical" name="LMONO"> F  </i>
    <i type="int" name="IDIPOL">     0</i>
    <i name="EPSILON">      1.00000000</i>
    <v name="DIPOL">   -100.00000000   -100.00000000   -100.00000000</v>
    <i name="EFIELD">      0.00000000</i>
   </separator>
  </separator>
  <separator name="grids" >
   <i type="int" name="NGX">    70</i>
   <i type="int" name="NGY">    70</i>
   <i type="int" name="NGZ">    70</i>
   <i type="int" name="NGXF">   140</i>
   <i type="int" name="NGYF">   140</i>
   <i type="int" name="NGZF">   140</i>
   <i type="logical" name="ADDGRID"> F  </i>
  </separator>
  <separator name="ionic" >
   <i type="int" name="NSW">     0</i>
   <i type="int" name="IBRION">    -1</i>
   <i type="int" name="MDALGO">     0</i>
   <i type="int" name="ISIF">     2</i>
   <i name="PSTRESS">      0.00000000</i>
   <i name="EDIFFG">      0.00000010</i>
   <i type="int" name="NFREE">     0</i>
   <i name="POTIM">      0.50000000</i>
   <i name="SMASS">     -3.00000000</i>
   <i name="SCALEE">      1.00000000</i>
  </separator>
  <separator name="ionic md" >
   <i name="TEBEG">      0.00010000</i>
   <i name="TEEND">      0.00010000</i>
   <i type="int" name="NBLOCK">     1</i>
   <i type="int" name="KBLOCK">     1</i>
   <i type="int" name="NPACO">   256</i>
   <i name="APACO">     16.00000000</i>
  </separator>
  <separator name="symmetry" >
   <i type="int" name="ISYM">     0</i>
   <i name="SYMPREC">      0.00001000</i>
  </separator>
  <separator name="dos" >
   <i type="int" name="LORBIT">     0</i>
   <v name="RWIGS">     -1.00000000     -1.00000000     -1.00000000</v>
   <i type="int" name="NEDOS">   301</i>
   <i name="EMIN">     10.00000000</i>
   <i name="EMAX">    -10.00000000</i>
   <i name="EFERMI">      0.00000000</i>
  </separator>
  <separator name="writing" >
   <i type="int" name="NWRITE">     2</i>
   <i type="logical" name="LWAVE"> F  </i>
   <i type="logical" name="LDOWNSAMPLE"> F  </i>
   <i type="logical" name="LCHARG"> F  </i>
   <i type="logical" name="LPARD"> F  </i>
   <i type="logical" name="LVTOT"> F  </i>
   <i type="logical" name="LVHAR"> F  </i>
   <i type="logical" name="LELF"> F  </i>
   <i type="logical" name="LOPTICS"> F  </i>
   <v name="STM">      0.00000000      0.00000000      0.00000000      0.00000000      0.00000000      0.00000000      0.00000000</v>
  </separator>
  <separator name="performance" >
   <i type="int" name="NPAR">     2</i>
   <i type="int" name="NSIM">     4</i>
   <i type="int" name="NBLK">    -1</i>
   <i type="logical" name="LPLANE"> T  </i>
   <i type="logical" name="LSCALAPACK"> T  </i>
   <i type="logical" name="LSCAAWARE"> F  </i>
   <i type="logical" name="LSCALU"> F  </i>
   <i type="logical" name="LASYNC"> F  </i>
   <i type="logical" name="LORBITALREAL"> F  </i>
  </separator>
  <separator name="miscellaneous" >
   <i type="int" name="IDIOT">     3</i>
   <i type="int" name="ISPECIAL">     0</i>
   <i type="logical" name="LMUSIC"> F  </i>
   <v name="POMASS">    118.71000000     28.08500000     24.30500000</v>
   <v name="DARWINR">      0.00000000      0.00000000      0.00000000</v>
   <v name="DARWINV">      1.00000000      1.00000000      1.00000000</v>
   <i type="logical" name="LCORR"> T  </i>
  </separator>
  <i type="logical" name="GGA_COMPAT"> T  </i>
  <i type="logical" name="LBERRY"> F  </i>
  <i type="int" name="ICORELEVEL">     0</i>
  <i type="logical" name="LDAU"> F  </i>
  <i type="int" name="I_CONSTRAINED_M">     0</i>
  <separator name="electronic exchange-correlation" >
   <i type="string" name="GGA">--</i>
   <i type="int" name="VOSKOWN">     0</i>
   <i type="logical" name="LHFCALC"> F  </i>
   <i type="string" name="PRECFOCK"></i>
   <i type="logical" name="LSYMGRAD"> F  </i>
   <i type="logical" name="LHFONE"> F  </i>
   <i type="logical" name="LRHFCALC"> F  </i>
   <i type="logical" name="LTHOMAS"> F  </i>
   <i type="logical" name="LMODELHF"> F  </i>
   <i name="ENCUT4O">     -1.00000000</i>
   <i type="int" name="EXXOEP">     0</i>
   <i type="int" name="FOURORBIT">     0</i>
   <i name="AEXX">      0.00000000</i>
   <i name="HFALPHA">      0.00000000</i>
   <i name="MCALPHA">      0.00000000</i>
   <i name="ALDAX">      1.00000000</i>
   <i name="AGGAX">      1.00000000</i>
   <i name="ALDAC">      1.00000000</i>
   <i name="AGGAC">      1.00000000</i>
   <i type="int" name="NKREDX">     1</i>
   <i type="int" name="NKREDY">     1</i>
   <i type="int" name="NKREDZ">     1</i>
   <i type="logical" name="SHIFTRED"> F  </i>
   <i type="logical" name="ODDONLY"> F  </i>
   <i type="logical" name="EVENONLY"> F  </i>
   <i type="int" name="LMAXFOCK">     0</i>
   <i type="int" name="NMAXFOCKAE">     0</i>
   <i type="logical" name="LFOCKAEDFT"> F  </i>
   <i name="HFSCREEN">      0.00000000</i>
   <i name="HFSCREENC">      0.00000000</i>
   <i type="int" name="NBANDSGWLOW">     0</i>
  </separator>
  <separator name="vdW DFT" >
   <i type="logical" name="LUSE_VDW"> F  </i>
   <i name="Zab_VDW">     -0.84910000</i>
   <i name="PARAM1">      0.12340000</i>
   <i name="PARAM2">      1.00000000</i>
   <i name="PARAM3">      0.00000000</i>
  </separator>
  <separator name="model GW" >
   <i type="int" name="MODEL_GW">     0</i>
   <i name="MODEL_EPS0">     12.94626887</i>
   <i name="MODEL_ALPHA">      1.00000000</i>
  </separator>
  <separator name="linear response parameters" >
   <i type="logical" name="LEPSILON"> F  </i>
   <i type="logical" name="LRPA"> F  </i>
   <i type="logical" name="LNABLA"> F  </i>
   <i type="logical" name="LVEL"> F  </i>
   <i type="int" name="KINTER">     0</i>
   <i name="CSHIFT">      0.10000000</i>
   <i name="OMEGAMAX">     -1.00000000</i>
   <i name="DEG_THRESHOLD">      0.00200000</i>
   <i name="RTIME">     -0.10000000</i>
   <i name="WPLASMAI">      0.00000000</i>
   <v name="DFIELD">      0.00000000      0.00000000      0.00000000</v>
   <v name="WPLASMA">      0.00000000      0.00000000      0.00000000      0.00000000      0.00000000      0.00000000      0.00000000      0.00000000      0.00000000</v>
  </separator>
  <separator name="orbital magnetization" >
   <i type="logical" name="NUCIND"> F  </i>
   <v name="MAGPOS">      0.00000000      0.00000000      0.00000000</v>
   <i type="logical" name="LNICSALL"> T  </i>
   <i type="logical" name="ORBITALMAG"> F  </i>
   <i type="logical" name="LMAGBLOCH"> F  </i>
   <i type="logical" name="LCHIMAG"> F  </i>
   <i type="logical" name="LGAUGE"> T  </i>
   <i type="int" name="MAGATOM">     0</i>
   <v name="MAGDIPOL">      0.00000000      0.00000000      0.00000000</v>
   <v name="AVECCONST">      0.00000000      0.00000000      0.00000000</v>
  </separator>
  <separator name="response functions" >
   <i type="logical" name="LADDER"> F  </i>
   <i type="logical" name="LRPAFORCE"> F  </i>
   <i type="logical" name="LFXC"> F  </i>
   <i type="logical" name="LHARTREE"> T  </i>
   <i type="int" name="IBSE">     0</i>
   <v type="int" name="KPOINT">    -1     0     0     0</v>
   <i type="logical" name="LTCTE"> F  </i>
   <i type="logical" name="LTETE"> F  </i>
   <i type="logical" name="LTRIPLET"> F  </i>
   <i type="logical" name="LFXCEPS"> F  </i>
   <i type="logical" name="LFXHEG"> F  </i>
   <i type="int" name="NATURALO">     2</i>
   <i type="logical" name="L2ORDER"> F  </i>
   <i type="logical" name="LMP2LT"> F  </i>
   <i type="logical" name="LUSEW"> F  </i>
   <i name="ENCUTGW">     -2.00000000</i>
   <i name="ENCUTGWSOFT">     -2.00000000</i>
   <i name="ENCUTLF">     -1.00000000</i>
   <i type="int" name="LMAXMP2">    -1</i>
   <i name="SCISSOR">      0.00000000</i>
   <i type="int" name="NOMEGA">     0</i>
   <i type="int" name="NOMEGAR">     0</i>
   <i type="int" name="NBANDSGW">    -1</i>
   <i type="int" name="NBANDSO">    -1</i>
   <i type="int" name="NBANDSV">    -1</i>
   <i type="int" name="NELM">     1</i>
   <i type="int" name="NELMHF">     1</i>
   <i type="int" name="DIM">     3</i>
   <i type="int" name="ANTIRES">     0</i>
   <i name="OMEGAMAX">    -30.00000000</i>
   <i name="OMEGAMIN">    -30.00000000</i>
   <i name="OMEGATL">   -200.00000000</i>
   <i type="int" name="OMEGAGRID">   140</i>
   <i name="CSHIFT">     -0.10000000</i>
   <i type="logical" name="SELFENERGY"> F  </i>
   <i type="logical" name="LSPECTRAL"> F  </i>
   <i type="logical" name="LSPECTRALGW"> F  </i>
   <i type="logical" name="LSINGLES"> F  </i>
   <i type="logical" name="LFERMIGW"> F  </i>
   <i type="logical" name="ODDONLYGW"> F  </i>
   <i type="logical" name="EVENONLYGW"> F  </i>
   <i type="int" name="NKREDLFX">     1</i>
   <i type="int" name="NKREDLFY">     1</i>
   <i type="int" name="NKREDLFZ">     1</i>
   <i type="int" name="MAXMEM">  2800</i>
   <i type="int" name="TELESCOPE">     0</i>
   <i type="int" name="TAUPAR">     1</i>
   <i type="int" name="OMEGAPAR">    -1</i>
   <i name="LAMBDA">      1.00000000</i>
  </separator>
  <separator name="External order field" >
   <i name="OFIELD_KAPPA">      0.00000000</i>
   <v name="OFIELD_K">      0.00000000      0.00000000      0.00000000</v>
   <i name="OFIELD_Q6_NEAR">      0.00000000</i>
   <i name="OFIELD_Q6_FAR">      0.00000000</i>
   <i name="OFIELD_A">      0.00000000</i>
  </separator>
 </parameters>
 <atominfo>
  <atoms>      96 </atoms>
  <types>       3 </types>
  <array name="atoms" >
   <dimension dim="1">ion</dimension>
   <field type="string">element</field>
   <field type="int">atomtype</field>
   <set>
    <rc><c>Sn</c><c>   1</c></rc>
    <rc><c>Si</c><c>   2</c></rc>
    <rc><c>Si</c><c>   2</c></rc>
    <rc><c>Si</c><c>   2</c></rc>
    <rc><c>Si</c><c>   2</c></rc>
    <rc><c>Si</c><c>   2</c></rc>
    <rc><c>Si</c><c>   2</c></rc>
    <rc><c>Si</c><c>   2</c></rc>
    <rc><c>Si</c><c>   2</c></rc>
    <rc><c>Si</c><c>   2</c></rc>
    <rc><c>Si</c><c>   2</c></rc>
    <rc><c>Si</c><c>   2</c></rc>
    <rc><c>Si</c><c>   2</c></rc>
    <rc><c>Si</c><c>   2</c></rc>
    <rc><c>Si</c><c>   2</c></rc>
    <rc><c>Si</c><c>   2</c></rc>
    <rc><c>Si</c><c>   2</c></rc>
    <rc><c>Si</c><c>   2</c></rc>
    <rc><c>Si</c><c>   2</c></rc>
    <rc><c>Si</c><c>   2</c></rc>
    <rc><c>Si</c><c>   2</c></rc>
    <rc><c>Si</c><c>   2</c></rc>
    <rc><c>Si</c><c>   2</c></rc>
    <rc><c>Si</c><c>   2</c></rc>
    <rc><c>Si</c><c>   2</c></rc>
    <rc><c>Si</c><c>   2</c></rc>
    <rc><c>Si</c><c>   2</c></rc>
    <rc><c>Si</c><c>   2</c></rc>
    <rc><c>Si</c><c>   2</c></rc>
    <rc><c>Si</c><c>   2</c></rc>
    <rc><c>Si</c><c>   2</c></rc>
    <rc><c>Si</c><c>   2</c></rc>
    <rc><c>Mg</c><c>   3</c></rc>
    <rc><c>Mg</c><c>   3</c></rc>
    <rc><c>Mg</c><c>   3</c></rc>
    <rc><c>Mg</c><c>   3</c></rc>
    <rc><c>Mg</c><c>   3</c></rc>
    <rc><c>Mg</c><c>   3</c></rc>
    <rc><c>Mg</c><c>   3</c></rc>
    <rc><c>Mg</c><c>   3</c></rc>
    <rc><c>Mg</c><c>   3</c></rc>
    <rc><c>Mg</c><c>   3</c></rc>
    <rc><c>Mg</c><c>   3</c></rc>
    <rc><c>Mg</c><c>   3</c></rc>
    <rc><c>Mg</c><c>   3</c></rc>
    <rc><c>Mg</c><c>   3</c></rc>
    <rc><c>Mg</c><c>   3</c></rc>
    <rc><c>Mg</c><c>   3</c></rc>
    <rc><c>Mg</c><c>   3</c></rc>
    <rc><c>Mg</c><c>   3</c></rc>
    <rc><c>Mg</c><c>   3</c></rc>
    <rc><c>Mg</c><c>   3</c></rc>
    <rc><c>Mg</c><c>   3</c></rc>
    <rc><c>Mg</c><c>   3</c></rc>
    <rc><c>Mg</c><c>   3</c></rc>
    <rc><c>Mg</c><c>   3</c></rc>
    <rc><c>Mg</c><c>   3</c></rc>
    <rc><c>Mg</c><c>   3</c></rc>
    <rc><c>Mg</c><c>   3</c></rc>
    <rc><c>Mg</c><c>   3</c></rc>
    <rc><c>Mg</c><c>   3</c></rc>
    <rc><c>Mg</c><c>   3</c></rc>
    <rc><c>Mg</c><c>   3</c></rc>
    <rc><c>Mg</c><c>   3</c></rc>
    <rc><c>Mg</c><c>   3</c></rc>
    <rc><c>Mg</c><c>   3</c></rc>
    <rc><c>Mg</c><c>   3</c></rc>
    <rc><c>Mg</c><c>   3</c></rc>
    <rc><c>Mg</c><c>   3</c></rc>
    <rc><c>Mg</c><c>   3</c></rc>
    <rc><c>Mg</c><c>   3</c></rc>
    <rc><c>Mg</c><c>   3</c></rc>
    <rc><c>Mg</c><c>   3</c></rc>
    <rc><c>Mg</c><c>   3</c></rc>
    <rc><c>Mg</c><c>   3</c></rc>
    <rc><c>Mg</c><c>   3</c></rc>
    <rc><c>Mg</c><c>   3</c></rc>
    <rc><c>Mg</c><c>   3</c></rc>
    <rc><c>Mg</c><c>   3</c></rc>
    <rc><c>Mg</c><c>   3</c></rc>
    <rc><c>Mg</c><c>   3</c></rc>
    <rc><c>Mg</c><c>   3</c></rc>
    <rc><c>Mg</c><c>   3</c></rc>
    <rc><c>Mg</c><c>   3</c></rc>
    <rc><c>Mg</c><c>   3</c></rc>
    <rc><c>Mg</c><c>   3</c></rc>
    <rc><c>Mg</c><c>   3</c></rc>
    <rc><c>Mg</c><c>   3</c></rc>
    <rc><c>Mg</c><c>   3</c></rc>
    <rc><c>Mg</c><c>   3</c></rc>
    <rc><c>Mg</c><c>   3</c></rc>
    <rc><c>Mg</c><c>   3</c></rc>
    <rc><c>Mg</c><c>   3</c></rc>
    <rc><c>Mg</c><c>   3</c></rc>
    <rc><c>Mg</c><c>   3</c></rc>
    <rc><c>Mg</c><c>   3</c></rc>
   </set>
  </array>
  <array name="atomtypes" >
   <dimension dim="1">type</dimension>
   <field type="int">atomspertype</field>
   <field type="string">element</field>
   <field>mass</field>
   <field>valence</field>
   <field type="string">pseudopotential</field>
   <set>
    <rc><c>   1</c><c>Sn</c><c>    118.71000000</c><c>      4.00000000</c><c>  PAW_PBE Sn 08Apr2002                  </c></rc>
    <rc><c>  31</c><c>Si</c><c>     28.08500000</c><c>      4.00000000</c><c>  PAW_PBE Si 05Jan2001                  </c></rc>
    <rc><c>  64</c><c>Mg</c><c>     24.30500000</c><c>      2.00000000</c><c>  PAW_PBE Mg 13Apr2007                  </c></rc>
   </set>
  </array>
 </atominfo>
 <structure name="initialpos" >
  <crystal>
   <varray name="basis" >
    <v>      12.74739769       0.00000000       0.00000000 </v>
    <v>       0.00000000      12.74739769       0.00000000 </v>
    <v>       0.00000000       0.00000000      12.74739769 </v>
   </varray>
   <i name="volume">   2071.40301882 </i>
   <varray name="rec_basis" >
    <v>       0.07844738       0.00000000       0.00000000 </v>
    <v>       0.00000000       0.07844738       0.00000000 </v>
    <v>       0.00000000       0.00000000       0.07844738 </v>
   </varray>
  </crystal>
  <varray name="positions" >
   <v>       0.00000000       0.00000000       0.00000000 </v>
   <v>       0.50000000       0.00000000       0.00000000 </v>
   <v>       0.00000000       0.50000000       0.00000000 </v>
   <v>       0.50000000       0.50000000       0.00000000 </v>
   <v>       0.00000000       0.00000000       0.50000000 </v>
   <v>       0.50000000       0.00000000       0.50000000 </v>
   <v>       0.00000000       0.50000000       0.50000000 </v>
   <v>       0.50000000       0.50000000       0.50000000 </v>
   <v>       0.25140293       0.25140293       0.00000000 </v>
   <v>       0.74859707       0.25140293       0.00000000 </v>
   <v>       0.25140293       0.74859707       0.00000000 </v>
   <v>       0.74859707       0.74859707       0.00000000 </v>
   <v>       0.25012668       0.25012668       0.50000000 </v>
   <v>       0.74987332       0.25012668       0.50000000 </v>
   <v>       0.25012668       0.74987332       0.50000000 </v>
   <v>       0.74987332       0.74987332       0.50000000 </v>
   <v>       0.25140293       0.00000000       0.25140293 </v>
   <v>       0.74859707       0.00000000       0.25140293 </v>
   <v>       0.25012668       0.50000000       0.25012668 </v>
   <v>       0.74987332       0.50000000       0.25012668 </v>
   <v>       0.25140293       0.00000000       0.74859707 </v>
   <v>       0.74859707       0.00000000       0.74859707 </v>
   <v>       0.25012668       0.50000000       0.74987332 </v>
   <v>       0.74987332       0.50000000       0.74987332 </v>
   <v>       0.00000000       0.25140293       0.25140293 </v>
   <v>       0.50000000       0.25012668       0.25012668 </v>
   <v>       0.00000000       0.74859707       0.25140293 </v>
   <v>       0.50000000       0.74987332       0.25012668 </v>
   <v>       0.00000000       0.25140293       0.74859707 </v>
   <v>       0.50000000       0.25012668       0.74987332 </v>
   <v>       0.00000000       0.74859707       0.74859707 </v>
   <v>       0.50000000       0.74987332       0.74987332 </v>
   <v>       0.12960836       0.12960836       0.12960836 </v>
   <v>       0.62421357       0.12507203       0.12507203 </v>
   <v>       0.12507203       0.62421357       0.12507203 </v>
   <v>       0.62455273       0.62455273       0.12469540 </v>
   <v>       0.12507203       0.12507203       0.62421357 </v>
   <v>       0.62455273       0.12469540       0.62455273 </v>
   <v>       0.12469540       0.62455273       0.62455273 </v>
   <v>       0.62586686       0.62508239       0.62508239 </v>
   <v>       0.37578643       0.12507203       0.12507203 </v>
   <v>       0.87039164       0.12960836       0.12960836 </v>
   <v>       0.37544727       0.62455273       0.12469540 </v>
   <v>       0.87492797       0.62421357       0.12507203 </v>
   <v>       0.37544727       0.12469540       0.62455273 </v>
   <v>       0.87492797       0.12507203       0.62421357 </v>
   <v>       0.37491761       0.62508239       0.62508239 </v>
   <v>       0.87530460       0.62455273       0.62455273 </v>
   <v>       0.12507203       0.37578643       0.12507203 </v>
   <v>       0.62455273       0.37544727       0.12469540 </v>
   <v>       0.12960836       0.87039164       0.12960836 </v>
   <v>       0.62421357       0.87492797       0.12507203 </v>
   <v>       0.12469540       0.37544727       0.62455273 </v>
   <v>       0.62508239       0.37491761       0.62508239 </v>
   <v>       0.12507203       0.87492797       0.62421357 </v>
   <v>       0.62455273       0.87530460       0.62455273 </v>
   <v>       0.37544727       0.37544727       0.12469540 </v>
   <v>       0.87492797       0.37578643       0.12507203 </v>
   <v>       0.37578643       0.87492797       0.12507203 </v>
   <v>       0.87039164       0.87039164       0.12960836 </v>
   <v>       0.37491761       0.37491761       0.62508239 </v>
   <v>       0.87530460       0.37544727       0.62455273 </v>
   <v>       0.37544727       0.87530460       0.62455273 </v>
   <v>       0.87492797       0.87492797       0.62421357 </v>
   <v>       0.12507203       0.12507203       0.37578643 </v>
   <v>       0.62455273       0.12469540       0.37544727 </v>
   <v>       0.12469540       0.62455273       0.37544727 </v>
   <v>       0.62508239       0.62508239       0.37491761 </v>
   <v>       0.12960836       0.12960836       0.87039164 </v>
   <v>       0.62421357       0.12507203       0.87492797 </v>
   <v>       0.12507203       0.62421357       0.87492797 </v>
   <v>       0.62455273       0.62455273       0.87530460 </v>
   <v>       0.37544727       0.12469540       0.37544727 </v>
   <v>       0.87492797       0.12507203       0.37578643 </v>
   <v>       0.37491761       0.62508239       0.37491761 </v>
   <v>       0.87530460       0.62455273       0.37544727 </v>
   <v>       0.37578643       0.12507203       0.87492797 </v>
   <v>       0.87039164       0.12960836       0.87039164 </v>
   <v>       0.37544727       0.62455273       0.87530460 </v>
   <v>       0.87492797       0.62421357       0.87492797 </v>
   <v>       0.12469540       0.37544727       0.37544727 </v>
   <v>       0.62508239       0.37491761       0.37491761 </v>
   <v>       0.12507203       0.87492797       0.37578643 </v>
   <v>       0.62455273       0.87530460       0.37544727 </v>
   <v>       0.12507203       0.37578643       0.87492797 </v>
   <v>       0.62455273       0.37544727       0.87530460 </v>
   <v>       0.12960836       0.87039164       0.87039164 </v>
   <v>       0.62421357       0.87492797       0.87492797 </v>
   <v>       0.37491761       0.37491761       0.37491761 </v>
   <v>       0.87530460       0.37544727       0.37544727 </v>
   <v>       0.37544727       0.87530460       0.37544727 </v>
   <v>       0.87492797       0.87492797       0.37578643 </v>
   <v>       0.37544727       0.37544727       0.87530460 </v>
   <v>       0.87492797       0.37578643       0.87492797 </v>
   <v>       0.37578643       0.87492797       0.87492797 </v>
   <v>       0.87039164       0.87039164       0.87039164 </v>
  </varray>
 </structure>
 <calculation>
  <scstep>
   <time name="dav">   13.38   13.43</time>
   <time name="total">   14.18   14.23</time>
   <energy>
    <i name="alphaZ">    214.09658884 </i>
    <i name="ewald">  -5218.82889070 </i>
    <i name="hartreedc">   -333.03037329 </i>
    <i name="XCdc">  -3539.85008738 </i>
    <i name="pawpsdc">   7100.88161447 </i>
    <i name="pawaedc">  -3112.42095010 </i>
    <i name="eentropy">     -0.00000000 </i>
    <i name="bandstr">    447.64882402 </i>
    <i name="atom">   4763.39200965 </i>
    <i name="e_fr_energy">    321.88873550 </i>
    <i name="e_wo_entrp">    321.88873550 </i>
    <i name="e_0_energy">    321.88873550 </i>
   </energy>
  </scstep>
  <scstep>
   <time name="dav">   15.77   15.80</time>
   <time name="total">   15.77   15.80</time>
   <energy>
    <i name="e_fr_energy">   -253.38105853 </i>
    <i name="e_wo_entrp">   -253.38105853 </i>
    <i name="e_0_energy">   -253.38105853 </i>
   </energy>
  </scstep>
  <scstep>
   <time name="dav">   15.83   15.86</time>
   <time name="total">   15.83   15.86</time>
   <energy>
    <i name="e_fr_energy">   -296.45466939 </i>
    <i name="e_wo_entrp">   -296.45466939 </i>
    <i name="e_0_energy">   -296.45466939 </i>
   </energy>
  </scstep>
  <scstep>
   <time name="dav">   15.60   15.63</time>
   <time name="total">   15.60   15.63</time>
   <energy>
    <i name="e_fr_energy">   -297.34069067 </i>
    <i name="e_wo_entrp">   -297.34069067 </i>
    <i name="e_0_energy">   -297.34069067 </i>
   </energy>
  </scstep>
  <scstep>
   <time name="dav">   16.00   16.03</time>
   <time name="total">   16.41   16.44</time>
   <energy>
    <i name="e_fr_energy">   -297.36475516 </i>
    <i name="e_wo_entrp">   -297.36475516 </i>
    <i name="e_0_energy">   -297.36475516 </i>
   </energy>
  </scstep>
  <scstep>
   <time name="dav">   13.59   13.62</time>
   <time name="total">   14.80   14.84</time>
   <energy>
    <i name="e_fr_energy">   -280.23928600 </i>
    <i name="e_wo_entrp">   -280.23928600 </i>
    <i name="e_0_energy">   -280.23928600 </i>
   </energy>
  </scstep>
  <scstep>
   <time name="dav">   14.51   14.54</time>
   <time name="total">   15.73   15.76</time>
   <energy>
    <i name="e_fr_energy">   -277.76410667 </i>
    <i name="e_wo_entrp">   -277.76410661 </i>
    <i name="e_0_energy">   -277.76410664 </i>
   </energy>
  </scstep>
  <scstep>
   <time name="dav">   14.36   14.38</time>
   <time name="total">   15.57   15.60</time>
   <energy>
    <i name="e_fr_energy">   -277.76823788 </i>
    <i name="e_wo_entrp">   -277.76823788 </i>
    <i name="e_0_energy">   -277.76823788 </i>
   </energy>
  </scstep>
  <scstep>
   <time name="dav">   15.06   15.09</time>
   <time name="total">   16.28   16.31</time>
   <energy>
    <i name="e_fr_energy">   -277.76499505 </i>
    <i name="e_wo_entrp">   -277.76499505 </i>
    <i name="e_0_energy">   -277.76499505 </i>
   </energy>
  </scstep>
  <scstep>
   <time name="dav">   14.57   14.60</time>
   <time name="total">   15.79   15.82</time>
   <energy>
    <i name="e_fr_energy">   -277.76822583 </i>
    <i name="e_wo_entrp">   -277.76822583 </i>
    <i name="e_0_energy">   -277.76822583 </i>
   </energy>
  </scstep>
  <scstep>
   <time name="dav">   14.88   14.91</time>
   <time name="total">   16.10   16.13</time>
   <energy>
    <i name="e_fr_energy">   -277.76866203 </i>
    <i name="e_wo_entrp">   -277.76866203 </i>
    <i name="e_0_energy">   -277.76866203 </i>
   </energy>
  </scstep>
  <scstep>
   <time name="dav">   15.95   15.98</time>
   <time name="total">   17.16   17.19</time>
   <energy>
    <i name="e_fr_energy">   -277.76856311 </i>
    <i name="e_wo_entrp">   -277.76856311 </i>
    <i name="e_0_energy">   -277.76856311 </i>
   </energy>
  </scstep>
  <scstep>
   <time name="dav">   15.26   15.29</time>
   <time name="total">   16.47   16.50</time>
   <energy>
    <i name="e_fr_energy">   -277.76853625 </i>
    <i name="e_wo_entrp">   -277.76853625 </i>
    <i name="e_0_energy">   -277.76853625 </i>
   </energy>
  </scstep>
  <scstep>
   <time name="dav">   14.59   14.62</time>
   <time name="total">   15.80   15.83</time>
   <energy>
    <i name="e_fr_energy">   -277.76854288 </i>
    <i name="e_wo_entrp">   -277.76854288 </i>
    <i name="e_0_energy">   -277.76854288 </i>
   </energy>
  </scstep>
  <scstep>
   <time name="dav">   14.76   14.79</time>
   <time name="total">   15.97   16.00</time>
   <energy>
    <i name="e_fr_energy">   -277.76854241 </i>
    <i name="e_wo_entrp">   -277.76854241 </i>
    <i name="e_0_energy">   -277.76854241 </i>
   </energy>
  </scstep>
  <scstep>
   <time name="dav">   15.21   15.24</time>
   <time name="total">   16.43   16.46</time>
   <energy>
    <i name="e_fr_energy">   -277.76854267 </i>
    <i name="e_wo_entrp">   -277.76854267 </i>
    <i name="e_0_energy">   -277.76854267 </i>
   </energy>
  </scstep>
  <scstep>
   <time name="dav">   14.75   14.78</time>
   <time name="total">   15.96   16.00</time>
   <energy>
    <i name="e_fr_energy">   -277.76854287 </i>
    <i name="e_wo_entrp">   -277.76854287 </i>
    <i name="e_0_energy">   -277.76854287 </i>
   </energy>
  </scstep>
  <scstep>
   <time name="dav">   14.37   14.40</time>
   <time name="total">   15.59   15.62</time>
   <energy>
    <i name="e_fr_energy">   -277.76854284 </i>
    <i name="e_wo_entrp">   -277.76854284 </i>
    <i name="e_0_energy">   -277.76854284 </i>
   </energy>
  </scstep>
  <scstep>
   <time name="dav">   10.65   10.67</time>
   <time name="total">   11.86   11.89</time>
   <energy>
    <i name="e_fr_energy">   -277.76854287 </i>
    <i name="e_wo_entrp">   -277.76854287 </i>
    <i name="e_0_energy">   -277.76854287 </i>
   </energy>
  </scstep>
  <scstep>
   <time name="dav">    9.96    9.98</time>
   <time name="total">   11.18   11.20</time>
   <energy>
    <i name="e_fr_energy">   -277.76854289 </i>
    <i name="e_wo_entrp">   -277.76854289 </i>
    <i name="e_0_energy">   -277.76854289 </i>
   </energy>
  </scstep>
  <scstep>
   <time name="dav">    9.74    9.76</time>
   <time name="total">   10.96   10.98</time>
   <energy>
    <i name="e_fr_energy">   -277.76854288 </i>
    <i name="e_wo_entrp">   -277.76854288 </i>
    <i name="e_0_energy">   -277.76854288 </i>
   </energy>
  </scstep>
  <scstep>
   <time name="dav">    9.97    9.99</time>
   <time name="total">   10.77   10.80</time>
   <energy>
    <i name="alphaZ">    214.09658884 </i>
    <i name="ewald">  -5218.82889070 </i>
    <i name="hartreedc">   -486.12741288 </i>
    <i name="XCdc">  -3511.70758390 </i>
    <i name="pawpsdc">  17714.26735250 </i>
    <i name="pawaedc"> -13730.58915703 </i>
    <i name="eentropy">     -0.00000000 </i>
    <i name="bandstr">    -22.27144936 </i>
    <i name="atom">   4763.39200965 </i>
    <i name="e_fr_energy">   -277.76854288 </i>
    <i name="e_wo_entrp">   -277.76854288 </i>
    <i name="e_0_energy">   -277.76854288 </i>
   </energy>
  </scstep>
  <structure>
   <crystal>
    <varray name="basis" >
     <v>      12.74739769       0.00000000       0.00000000 </v>
     <v>       0.00000000      12.74739769       0.00000000 </v>
     <v>       0.00000000       0.00000000      12.74739769 </v>
    </varray>
    <i name="volume">   2071.40301882 </i>
    <varray name="rec_basis" >
     <v>       0.07844738       0.00000000       0.00000000 </v>
     <v>       0.00000000       0.07844738       0.00000000 </v>
     <v>       0.00000000       0.00000000       0.07844738 </v>
    </varray>
   </crystal>
   <varray name="positions" >
    <v>       0.00000000       0.00000000       0.00000000 </v>
    <v>       0.50000000       0.00000000       0.00000000 </v>
    <v>       0.00000000       0.50000000       0.00000000 </v>
    <v>       0.50000000       0.50000000       0.00000000 </v>
    <v>       0.00000000       0.00000000       0.50000000 </v>
    <v>       0.50000000       0.00000000       0.50000000 </v>
    <v>       0.00000000       0.50000000       0.50000000 </v>
    <v>       0.50000000       0.50000000       0.50000000 </v>
    <v>       0.25140293       0.25140293       0.00000000 </v>
    <v>       0.74859707       0.25140293       0.00000000 </v>
    <v>       0.25140293       0.74859707       0.00000000 </v>
    <v>       0.74859707       0.74859707       0.00000000 </v>
    <v>       0.25012668       0.25012668       0.50000000 </v>
    <v>       0.74987332       0.25012668       0.50000000 </v>
    <v>       0.25012668       0.74987332       0.50000000 </v>
    <v>       0.74987332       0.74987332       0.50000000 </v>
    <v>       0.25140293       0.00000000       0.25140293 </v>
    <v>       0.74859707       0.00000000       0.25140293 </v>
    <v>       0.25012668       0.50000000       0.25012668 </v>
    <v>       0.74987332       0.50000000       0.25012668 </v>
    <v>       0.25140293       0.00000000       0.74859707 </v>
    <v>       0.74859707       0.00000000       0.74859707 </v>
    <v>       0.25012668       0.50000000       0.74987332 </v>
    <v>       0.74987332       0.50000000       0.74987332 </v>
    <v>       0.00000000       0.25140293       0.25140293 </v>
    <v>       0.50000000       0.25012668       0.25012668 </v>
    <v>       0.00000000       0.74859707       0.25140293 </v>
    <v>       0.50000000       0.74987332       0.25012668 </v>
    <v>       0.00000000       0.25140293       0.74859707 </v>
    <v>       0.50000000       0.25012668       0.74987332 </v>
    <v>       0.00000000       0.74859707       0.74859707 </v>
    <v>       0.50000000       0.74987332       0.74987332 </v>
    <v>       0.12960836       0.12960836       0.12960836 </v>
    <v>       0.62421357       0.12507203       0.12507203 </v>
    <v>       0.12507203       0.62421357       0.12507203 </v>
    <v>       0.62455273       0.62455273       0.12469540 </v>
    <v>       0.12507203       0.12507203       0.62421357 </v>
    <v>       0.62455273       0.12469540       0.62455273 </v>
    <v>       0.12469540       0.62455273       0.62455273 </v>
    <v>       0.62586686       0.62508239       0.62508239 </v>
    <v>       0.37578643       0.12507203       0.12507203 </v>
    <v>       0.87039164       0.12960836       0.12960836 </v>
    <v>       0.37544727       0.62455273       0.12469540 </v>
    <v>       0.87492797       0.62421357       0.12507203 </v>
    <v>       0.37544727       0.12469540       0.62455273 </v>
    <v>       0.87492797       0.12507203       0.62421357 </v>
    <v>       0.37491761       0.62508239       0.62508239 </v>
    <v>       0.87530460       0.62455273       0.62455273 </v>
    <v>       0.12507203       0.37578643       0.12507203 </v>
    <v>       0.62455273       0.37544727       0.12469540 </v>
    <v>       0.12960836       0.87039164       0.12960836 </v>
    <v>       0.62421357       0.87492797       0.12507203 </v>
    <v>       0.12469540       0.37544727       0.62455273 </v>
    <v>       0.62508239       0.37491761       0.62508239 </v>
    <v>       0.12507203       0.87492797       0.62421357 </v>
    <v>       0.62455273       0.87530460       0.62455273 </v>
    <v>       0.37544727       0.37544727       0.12469540 </v>
    <v>       0.87492797       0.37578643       0.12507203 </v>
    <v>       0.37578643       0.87492797       0.12507203 </v>
    <v>       0.87039164       0.87039164       0.12960836 </v>
    <v>       0.37491761       0.37491761       0.62508239 </v>
    <v>       0.87530460       0.37544727       0.62455273 </v>
    <v>       0.37544727       0.87530460       0.62455273 </v>
    <v>       0.87492797       0.87492797       0.62421357 </v>
    <v>       0.12507203       0.12507203       0.37578643 </v>
    <v>       0.62455273       0.12469540       0.37544727 </v>
    <v>       0.12469540       0.62455273       0.37544727 </v>
    <v>       0.62508239       0.62508239       0.37491761 </v>
    <v>       0.12960836       0.12960836       0.87039164 </v>
    <v>       0.62421357       0.12507203       0.87492797 </v>
    <v>       0.12507203       0.62421357       0.87492797 </v>
    <v>       0.62455273       0.62455273       0.87530460 </v>
    <v>       0.37544727       0.12469540       0.37544727 </v>
    <v>       0.87492797       0.12507203       0.37578643 </v>
    <v>       0.37491761       0.62508239       0.37491761 </v>
    <v>       0.87530460       0.62455273       0.37544727 </v>
    <v>       0.37578643       0.12507203       0.87492797 </v>
    <v>       0.87039164       0.12960836       0.87039164 </v>
    <v>       0.37544727       0.62455273       0.87530460 </v>
    <v>       0.87492797       0.62421357       0.87492797 </v>
    <v>       0.12469540       0.37544727       0.37544727 </v>
    <v>       0.62508239       0.37491761       0.37491761 </v>
    <v>       0.12507203       0.87492797       0.37578643 </v>
    <v>       0.62455273       0.87530460       0.37544727 </v>
    <v>       0.12507203       0.37578643       0.87492797 </v>
    <v>       0.62455273       0.37544727       0.87530460 </v>
    <v>       0.12960836       0.87039164       0.87039164 </v>
    <v>       0.62421357       0.87492797       0.87492797 </v>
    <v>       0.37491761       0.37491761       0.37491761 </v>
    <v>       0.87530460       0.37544727       0.37544727 </v>
    <v>       0.37544727       0.87530460       0.37544727 </v>
    <v>       0.87492797       0.87492797       0.37578643 </v>
    <v>       0.37544727       0.37544727       0.87530460 </v>
    <v>       0.87492797       0.37578643       0.87492797 </v>
    <v>       0.37578643       0.87492797       0.87492797 </v>
    <v>       0.87039164       0.87039164       0.87039164 </v>
   </varray>
  </structure>
  <varray name="forces" >
   <v>      -0.00021054      -0.00000413      -0.00000417 </v>
   <v>       0.00028506       0.00064246       0.00064240 </v>
   <v>      -0.00060591      -0.00016414      -0.00039879 </v>
   <v>       0.00058575      -0.00043702      -0.00007323 </v>
   <v>      -0.00060586      -0.00039888      -0.00016410 </v>
   <v>       0.00058569      -0.00007325      -0.00043700 </v>
   <v>      -0.00072724       0.00023487       0.00023483 </v>
   <v>       0.00626503       0.00346571       0.00346568 </v>
   <v>       0.00613069       0.00632441       0.00003480 </v>
   <v>      -0.00604533       0.00695078      -0.00064631 </v>
   <v>       0.00574047      -0.00655010       0.00045207 </v>
   <v>      -0.00572955      -0.00683051       0.00010675 </v>
   <v>      -0.00406563      -0.00387195       0.00019762 </v>
   <v>       0.00405909      -0.00355280       0.00046871 </v>
   <v>      -0.00415317       0.00367986      -0.00020941 </v>
   <v>       0.00991041       0.00719674      -0.00372281 </v>
   <v>       0.00613059       0.00003439       0.00632460 </v>
   <v>      -0.00604523      -0.00064633       0.00695049 </v>
   <v>      -0.00406558       0.00019759      -0.00387186 </v>
   <v>       0.00405904       0.00046871      -0.00355282 </v>
   <v>       0.00574043       0.00045207      -0.00654981 </v>
   <v>      -0.00572957       0.00010715      -0.00683063 </v>
   <v>      -0.00415309      -0.00020939       0.00367979 </v>
   <v>       0.00991033      -0.00372276       0.00719669 </v>
   <v>      -0.00020780       0.00633983       0.00633996 </v>
   <v>       0.00028752      -0.00410779      -0.00410782 </v>
   <v>      -0.00060895      -0.00618812       0.00672612 </v>
   <v>       0.00061205       0.00389169      -0.00340023 </v>
   <v>      -0.00060893       0.00672632      -0.00618788 </v>
   <v>       0.00061207      -0.00340023       0.00389177 </v>
   <v>      -0.00071688      -0.00658929      -0.00658954 </v>
   <v>       0.00639088      -0.00015615      -0.00015620 </v>
   <v>      -0.01470093      -0.01486924      -0.01486916 </v>
   <v>      -0.00322892       0.00051979       0.00051968 </v>
   <v>       0.00058769      -0.00156041       0.00051883 </v>
   <v>      -0.00052950      -0.00047315      -0.00034432 </v>
   <v>       0.00058795       0.00051928      -0.00156088 </v>
   <v>      -0.00052949      -0.00034388      -0.00047361 </v>
   <v>       0.00015672      -0.00047141      -0.00047182 </v>
   <v>      -0.04274113      -0.00071047      -0.00071086 </v>
   <v>       0.00229547       0.00052431       0.00052442 </v>
   <v>       0.01560444      -0.01486382      -0.01486373 </v>
   <v>       0.00048088      -0.00047093      -0.00035526 </v>
   <v>      -0.00052083      -0.00156189       0.00052403 </v>
   <v>       0.00048088      -0.00035569      -0.00047052 </v>
   <v>      -0.00052110       0.00052356      -0.00156144 </v>
   <v>       0.01066831      -0.00089837      -0.00089790 </v>
   <v>       0.01034125      -0.00049035      -0.00048991 </v>
   <v>       0.00060608       0.00156938       0.00044222 </v>
   <v>      -0.00108315       0.00047849       0.00000986 </v>
   <v>      -0.01479165       0.01486241      -0.01479243 </v>
   <v>      -0.00217355      -0.00052348       0.00018176 </v>
   <v>      -0.00006685       0.00047169      -0.00012617 </v>
   <v>      -0.00354729       0.00091490      -0.00226357 </v>
   <v>       0.00080736      -0.00051954      -0.00191968 </v>
   <v>      -0.00311782       0.00029854       0.00088817 </v>
   <v>       0.00073204       0.00013470      -0.00021666 </v>
   <v>      -0.00026570       0.00191580       0.00065728 </v>
   <v>       0.00183009      -0.00018921       0.00038901 </v>
   <v>       0.01512929       0.01453316      -0.01501084 </v>
   <v>       0.00189369       0.00192684      -0.00160906 </v>
   <v>       0.00135036      -0.00055787      -0.00118069 </v>
   <v>       0.00147027      -0.00067977       0.00023490 </v>
   <v>       0.00047490       0.00050833      -0.00085795 </v>
   <v>       0.00060583       0.00044184       0.00156982 </v>
   <v>      -0.00108315       0.00000941       0.00047892 </v>
   <v>      -0.00006686      -0.00012665       0.00047213 </v>
   <v>      -0.00354731      -0.00226402       0.00091535 </v>
   <v>      -0.01479170      -0.01479246       0.01486244 </v>
   <v>      -0.00217356       0.00018152      -0.00052328 </v>
   <v>       0.00080767      -0.00192012      -0.00051906 </v>
   <v>      -0.00311780       0.00088774       0.00029893 </v>
   <v>       0.00073206      -0.00021624       0.00013430 </v>
   <v>      -0.00026545       0.00065774       0.00191534 </v>
   <v>       0.00189372      -0.00160861       0.00192637 </v>
   <v>       0.00135036      -0.00118026      -0.00055831 </v>
   <v>       0.00183008       0.00038922      -0.00018941 </v>
   <v>       0.01512932      -0.01501085       0.01453307 </v>
   <v>       0.00147022       0.00023533      -0.00068020 </v>
   <v>       0.00047461      -0.00085753       0.00050794 </v>
   <v>      -0.00015542       0.00034030       0.00033987 </v>
   <v>      -0.00295040       0.00160566       0.00160522 </v>
   <v>       0.00071866      -0.00065621       0.00170258 </v>
   <v>      -0.00252147       0.00105185      -0.00022033 </v>
   <v>       0.00071839       0.00170302      -0.00065672 </v>
   <v>      -0.00252147      -0.00021985       0.00105138 </v>
   <v>      -0.01467392       0.01500334       0.01500333 </v>
   <v>      -0.00363224      -0.00123696      -0.00123709 </v>
   <v>       0.00293090       0.00138773       0.00138819 </v>
   <v>       0.00019031       0.00038569       0.00038616 </v>
   <v>       0.00031116       0.00026010       0.00056958 </v>
   <v>       0.00149685      -0.00004421       0.00109720 </v>
   <v>       0.00031113       0.00056914       0.00026054 </v>
   <v>       0.00149715       0.00109677      -0.00004384 </v>
   <v>       0.00361461      -0.00101234      -0.00101219 </v>
   <v>       0.01471214       0.01496849       0.01496838 </v>
  </varray>
  <varray name="stress" >
   <v>      -1.01809101       0.00015883       0.00015871 </v>
   <v>       0.00015887      -1.01856609      -0.00971662 </v>
   <v>       0.00015862      -0.00971655      -1.01856600 </v>
  </varray>
  <energy>
   <i name="e_fr_energy">   -277.76854288 </i>
   <i name="e_wo_entrp">   -277.76854288 </i>
   <i name="e_0_energy">     -0.00000000 </i>
  </energy>
  <time name="totalsc">  364.30  365.05</time>
  <eigenvalues>
   <array>
    <dimension dim="1">band</dimension>
    <dimension dim="2">kpoint</dimension>
    <dimension dim="3">spin</dimension>
    <field>eigene</field>
    <field>occ</field>
    <set>
     <set comment="spin 1">
      <set comment="kpoint 1">
       <r>   -5.4896    1.0000 </r>
       <r>   -4.7782    1.0000 </r>
       <r>   -4.7780    1.0000 </r>
       <r>   -4.7697    1.0000 </r>
       <r>   -4.7691    1.0000 </r>
       <r>   -4.7685    1.0000 </r>
       <r>   -4.7401    1.0000 </r>
       <r>   -4.2066    1.0000 </r>
       <r>   -4.2065    1.0000 </r>
       <r>   -4.2011    1.0000 </r>
       <r>   -4.2003    1.0000 </r>
       <r>   -4.2002    1.0000 </r>
       <r>   -4.1959    1.0000 </r>
       <r>   -4.1956    1.0000 </r>
       <r>   -4.1947    1.0000 </r>
       <r>   -4.1862    1.0000 </r>
       <r>   -4.1857    1.0000 </r>
       <r>   -4.1848    1.0000 </r>
       <r>   -4.1397    1.0000 </r>
       <r>   -4.0668    1.0000 </r>
       <r>   -4.0666    1.0000 </r>
       <r>   -4.0654    1.0000 </r>
       <r>   -4.0495    1.0000 </r>
       <r>   -3.5084    1.0000 </r>
       <r>   -3.5077    1.0000 </r>
       <r>   -3.4972    1.0000 </r>
       <r>   -3.4679    1.0000 </r>
       <r>   -3.4673    1.0000 </r>
       <r>   -3.4609    1.0000 </r>
       <r>   -3.4602    1.0000 </r>
       <r>   -3.4598    1.0000 </r>
       <r>   -3.3905    1.0000 </r>
       <r>   -1.1934    1.0000 </r>
       <r>   -1.1585    1.0000 </r>
       <r>   -1.1577    1.0000 </r>
       <r>   -1.1573    1.0000 </r>
       <r>   -0.8440    1.0000 </r>
       <r>   -0.8439    1.0000 </r>
       <r>   -0.8439    1.0000 </r>
       <r>   -0.0452    1.0000 </r>
       <r>   -0.0451    1.0000 </r>
       <r>   -0.0445    1.0000 </r>
       <r>   -0.0342    1.0000 </r>
       <r>   -0.0338    1.0000 </r>
       <r>   -0.0336    1.0000 </r>
       <r>   -0.0261    1.0000 </r>
       <r>   -0.0260    1.0000 </r>
       <r>   -0.0257    1.0000 </r>
       <r>    0.0001    1.0000 </r>
       <r>    0.0004    1.0000 </r>
       <r>    0.0020    1.0000 </r>
       <r>    0.0102    1.0000 </r>
       <r>    0.0107    1.0000 </r>
       <r>    0.0108    1.0000 </r>
       <r>    0.0112    1.0000 </r>
       <r>    0.0113    1.0000 </r>
       <r>    0.0129    1.0000 </r>
       <r>    0.0139    1.0000 </r>
       <r>    0.0147    1.0000 </r>
       <r>    0.0534    1.0000 </r>
       <r>    0.0539    1.0000 </r>
       <r>    0.0541    1.0000 </r>
       <r>    0.0686    1.0000 </r>
       <r>    0.7621    1.0000 </r>
       <r>    0.7624    1.0000 </r>
       <r>    0.7686    1.0000 </r>
       <r>    0.7832    1.0000 </r>
       <r>    0.7834    1.0000 </r>
       <r>    0.7841    1.0000 </r>
       <r>    0.8015    1.0000 </r>
       <r>    0.8016    1.0000 </r>
       <r>    0.8019    1.0000 </r>
       <r>    0.8022    1.0000 </r>
       <r>    0.8026    1.0000 </r>
       <r>    0.8034    1.0000 </r>
       <r>    0.9185    1.0000 </r>
       <r>    0.9350    1.0000 </r>
       <r>    0.9353    1.0000 </r>
       <r>    0.9355    1.0000 </r>
       <r>    0.9578    1.0000 </r>
       <r>    0.9580    1.0000 </r>
       <r>    1.1732    1.0000 </r>
       <r>    1.1735    1.0000 </r>
       <r>    1.1738    1.0000 </r>
       <r>    1.1739    1.0000 </r>
       <r>    1.1743    1.0000 </r>
       <r>    1.2245    1.0000 </r>
       <r>    1.6498    1.0000 </r>
       <r>    1.6499    1.0000 </r>
       <r>    1.6501    1.0000 </r>
       <r>    1.6526    1.0000 </r>
       <r>    1.6528    1.0000 </r>
       <r>    1.6530    1.0000 </r>
       <r>    2.3236    1.0000 </r>
       <r>    2.3239    1.0000 </r>
       <r>    2.3241    1.0000 </r>
       <r>    2.3304    1.0000 </r>
       <r>    2.3309    1.0000 </r>
       <r>    2.3311    1.0000 </r>
       <r>    2.3313    1.0000 </r>
       <r>    2.3313    1.0000 </r>
       <r>    2.3315    1.0000 </r>
       <r>    2.3814    1.0000 </r>
       <r>    2.3816    1.0000 </r>
       <r>    2.3822    1.0000 </r>
       <r>    2.7657    1.0000 </r>
       <r>    2.7667    1.0000 </r>
       <r>    2.7667    1.0000 </r>
       <r>    2.7789    1.0000 </r>
       <r>    2.7794    1.0000 </r>
       <r>    2.7796    1.0000 </r>
       <r>    2.7877    1.0000 </r>
       <r>    2.7947    1.0000 </r>
       <r>    2.7957    1.0000 </r>
       <r>    2.8220    1.0000 </r>
       <r>    2.8231    1.0000 </r>
       <r>    2.8240    1.0000 </r>
       <r>    2.8676    1.0000 </r>
       <r>    2.8682    1.0000 </r>
       <r>    2.8942    1.0000 </r>
       <r>    2.8949    1.0000 </r>
       <r>    2.8953    1.0000 </r>
       <r>    2.9792    1.0000 </r>
       <r>    2.9792    1.0000 </r>
       <r>    2.9793    1.0000 </r>
       <r>    3.6209    1.0000 </r>
       <r>    3.6211    1.0000 </r>
       <r>    3.6214    1.0000 </r>
       <r>    3.7502    0.0000 </r>
       <r>    3.7929    0.0000 </r>
       <r>    3.7938    0.0000 </r>
       <r>    3.9521    0.0000 </r>
       <r>    3.9521    0.0000 </r>
       <r>    3.9522    0.0000 </r>
       <r>    4.7264    0.0000 </r>
       <r>    4.7270    0.0000 </r>
       <r>    4.7589    0.0000 </r>
       <r>    4.7589    0.0000 </r>
       <r>    4.7594    0.0000 </r>
       <r>    4.7620    0.0000 </r>
       <r>    4.8109    0.0000 </r>
       <r>    4.8109    0.0000 </r>
       <r>    4.8116    0.0000 </r>
       <r>    4.8424    0.0000 </r>
       <r>    5.3089    0.0000 </r>
       <r>    5.3097    0.0000 </r>
       <r>    5.3106    0.0000 </r>
       <r>    5.3207    0.0000 </r>
       <r>    5.3213    0.0000 </r>
       <r>    5.3246    0.0000 </r>
       <r>    5.3251    0.0000 </r>
       <r>    5.3251    0.0000 </r>
       <r>    5.3337    0.0000 </r>
       <r>    5.3644    0.0000 </r>
       <r>    5.3647    0.0000 </r>
       <r>    5.3654    0.0000 </r>
       <r>    5.3725    0.0000 </r>
       <r>    5.3730    0.0000 </r>
       <r>    5.3734    0.0000 </r>
       <r>    5.3740    0.0000 </r>
       <r>    5.4335    0.0000 </r>
       <r>    5.4338    0.0000 </r>
       <r>    5.5273    0.0000 </r>
       <r>    6.0781    0.0000 </r>
       <r>    6.0784    0.0000 </r>
       <r>    6.0793    0.0000 </r>
       <r>    6.0995    0.0000 </r>
       <r>    6.1001    0.0000 </r>
       <r>    6.1006    0.0000 </r>
       <r>    6.1462    0.0000 </r>
       <r>    6.1463    0.0000 </r>
       <r>    6.1485    0.0000 </r>
       <r>    6.1489    0.0000 </r>
       <r>    6.1489    0.0000 </r>
       <r>    6.2466    0.0000 </r>
       <r>    6.2499    0.0000 </r>
       <r>    6.2564    0.0000 </r>
       <r>    6.2747    0.0000 </r>
      </set>
     </set>
    </set>
   </array>
  </eigenvalues>
  <separator name="orbital magnetization" >
   <v name="MAGDIPOLOUT">      0.00000000      0.00000000      0.00000000</v>
  </separator>
  <dos>
   <i name="efermi">      3.68169084 </i>
   <total>
    <array>
     <dimension dim="1">gridpoints</dimension>
     <dimension dim="2">spin</dimension>
     <field>energy</field>
     <field>total</field>
     <field>integrated</field>
     <set>
      <set comment="spin 1">
       <r>    -6.0778     0.0000     0.0000 </r>
       <r>    -6.0347     0.0000     0.0000 </r>
       <r>    -5.9915     0.0000     0.0000 </r>
       <r>    -5.9484     0.0000     0.0000 </r>
       <r>    -5.9053     0.0000     0.0000 </r>
       <r>    -5.8621     0.0000     0.0000 </r>
       <r>    -5.8190     0.0000     0.0000 </r>
       <r>    -5.7758     0.0000     0.0000 </r>
       <r>    -5.7327     0.0000     0.0000 </r>
       <r>    -5.6896     0.0000     0.0000 </r>
       <r>    -5.6464     0.0000     0.0000 </r>
       <r>    -5.6033     0.0000     0.0000 </r>
       <r>    -5.5602     0.0000     0.0000 </r>
       <r>    -5.5170     0.0024     0.0001 </r>
       <r>    -5.4739    45.7476     1.9735 </r>
       <r>    -5.4308     0.6151     2.0000 </r>
       <r>    -5.3876     0.0000     2.0000 </r>
       <r>    -5.3445     0.0000     2.0000 </r>
       <r>    -5.3013     0.0000     2.0000 </r>
       <r>    -5.2582     0.0000     2.0000 </r>
       <r>    -5.2151     0.0000     2.0000 </r>
       <r>    -5.1719     0.0000     2.0000 </r>
       <r>    -5.1288     0.0000     2.0000 </r>
       <r>    -5.0857     0.0000     2.0000 </r>
       <r>    -5.0425     0.0000     2.0000 </r>
       <r>    -4.9994     0.0000     2.0000 </r>
       <r>    -4.9563     0.0000     2.0000 </r>
       <r>    -4.9131     0.0000     2.0000 </r>
       <r>    -4.8700     0.0000     2.0000 </r>
       <r>    -4.8269     0.0000     2.0000 </r>
       <r>    -4.7837    22.5421     2.9724 </r>
       <r>    -4.7406   231.1286    12.9423 </r>
       <r>    -4.6974    24.5202    14.0000 </r>
       <r>    -4.6543     0.0000    14.0000 </r>
       <r>    -4.6112     0.0000    14.0000 </r>
       <r>    -4.5680     0.0000    14.0000 </r>
       <r>    -4.5249     0.0000    14.0000 </r>
       <r>    -4.4818     0.0000    14.0000 </r>
       <r>    -4.4386     0.0000    14.0000 </r>
       <r>    -4.3955     0.0000    14.0000 </r>
       <r>    -4.3524     0.0000    14.0000 </r>
       <r>    -4.3092     0.0000    14.0000 </r>
       <r>    -4.2661     0.0000    14.0000 </r>
       <r>    -4.2230     1.0509    14.0453 </r>
       <r>    -4.1798   477.6560    34.6494 </r>
       <r>    -4.1367    62.1693    37.3312 </r>
       <r>    -4.0935    15.5141    38.0004 </r>
       <r>    -4.0504   158.0450    44.8178 </r>
       <r>    -4.0073    27.4072    46.0000 </r>
       <r>    -3.9641     0.0000    46.0000 </r>
       <r>    -3.9210     0.0000    46.0000 </r>
       <r>    -3.8779     0.0000    46.0000 </r>
       <r>    -3.8347     0.0000    46.0000 </r>
       <r>    -3.7916     0.0000    46.0000 </r>
       <r>    -3.7485     0.0000    46.0000 </r>
       <r>    -3.7053     0.0000    46.0000 </r>
       <r>    -3.6622     0.0000    46.0000 </r>
       <r>    -3.6191     0.0000    46.0000 </r>
       <r>    -3.5759     0.0000    46.0000 </r>
       <r>    -3.5328     0.0223    46.0010 </r>
       <r>    -3.4896   132.0768    51.6982 </r>
       <r>    -3.4465   235.0967    61.8393 </r>
       <r>    -3.4034     5.3321    62.0693 </r>
       <r>    -3.3602    44.7580    64.0000 </r>
       <r>    -3.3171     0.0004    64.0000 </r>
       <r>    -3.2740     0.0000    64.0000 </r>
       <r>    -3.2308     0.0000    64.0000 </r>
       <r>    -3.1877     0.0000    64.0000 </r>
       <r>    -3.1446     0.0000    64.0000 </r>
       <r>    -3.1014     0.0000    64.0000 </r>
       <r>    -3.0583     0.0000    64.0000 </r>
       <r>    -3.0151     0.0000    64.0000 </r>
       <r>    -2.9720     0.0000    64.0000 </r>
       <r>    -2.9289     0.0000    64.0000 </r>
       <r>    -2.8857     0.0000    64.0000 </r>
       <r>    -2.8426     0.0000    64.0000 </r>
       <r>    -2.7995     0.0000    64.0000 </r>
       <r>    -2.7563     0.0000    64.0000 </r>
       <r>    -2.7132     0.0000    64.0000 </r>
       <r>    -2.6701     0.0000    64.0000 </r>
       <r>    -2.6269     0.0000    64.0000 </r>
       <r>    -2.5838     0.0000    64.0000 </r>
       <r>    -2.5407     0.0000    64.0000 </r>
       <r>    -2.4975     0.0000    64.0000 </r>
       <r>    -2.4544     0.0000    64.0000 </r>
       <r>    -2.4112     0.0000    64.0000 </r>
       <r>    -2.3681     0.0000    64.0000 </r>
       <r>    -2.3250     0.0000    64.0000 </r>
       <r>    -2.2818     0.0000    64.0000 </r>
       <r>    -2.2387     0.0000    64.0000 </r>
       <r>    -2.1956     0.0000    64.0000 </r>
       <r>    -2.1524     0.0000    64.0000 </r>
       <r>    -2.1093     0.0000    64.0000 </r>
       <r>    -2.0662     0.0000    64.0000 </r>
       <r>    -2.0230     0.0000    64.0000 </r>
       <r>    -1.9799     0.0000    64.0000 </r>
       <r>    -1.9368     0.0000    64.0000 </r>
       <r>    -1.8936     0.0000    64.0000 </r>
       <r>    -1.8505     0.0000    64.0000 </r>
       <r>    -1.8073     0.0000    64.0000 </r>
       <r>    -1.7642     0.0000    64.0000 </r>
       <r>    -1.7211     0.0000    64.0000 </r>
       <r>    -1.6779     0.0000    64.0000 </r>
       <r>    -1.6348     0.0000    64.0000 </r>
       <r>    -1.5917     0.0000    64.0000 </r>
       <r>    -1.5485     0.0000    64.0000 </r>
       <r>    -1.5054     0.0000    64.0000 </r>
       <r>    -1.4623     0.0000    64.0000 </r>
       <r>    -1.4191     0.0000    64.0000 </r>
       <r>    -1.3760     0.0000    64.0000 </r>
       <r>    -1.3329     0.0000    64.0000 </r>
       <r>    -1.2897     0.0000    64.0000 </r>
       <r>    -1.2466     0.0000    64.0000 </r>
       <r>    -1.2034     3.5894    64.1548 </r>
       <r>    -1.1603    93.2227    68.1761 </r>
       <r>    -1.1172    88.6485    72.0000 </r>
       <r>    -1.0740     0.0000    72.0000 </r>
       <r>    -1.0309     0.0000    72.0000 </r>
       <r>    -0.9878     0.0000    72.0000 </r>
       <r>    -0.9446     0.0000    72.0000 </r>
       <r>    -0.9015     0.0000    72.0000 </r>
       <r>    -0.8584     2.8965    72.1249 </r>
       <r>    -0.8152   136.1956    77.9999 </r>
       <r>    -0.7721     0.0034    78.0000 </r>
       <r>    -0.7289     0.0000    78.0000 </r>
       <r>    -0.6858     0.0000    78.0000 </r>
       <r>    -0.6427     0.0000    78.0000 </r>
       <r>    -0.5995     0.0000    78.0000 </r>
       <r>    -0.5564     0.0000    78.0000 </r>
       <r>    -0.5133     0.0000    78.0000 </r>
       <r>    -0.4701     0.0000    78.0000 </r>
       <r>    -0.4270     0.0000    78.0000 </r>
       <r>    -0.3839     0.0000    78.0000 </r>
       <r>    -0.3407     0.0000    78.0000 </r>
       <r>    -0.2976     0.0000    78.0000 </r>
       <r>    -0.2545     0.0000    78.0000 </r>
       <r>    -0.2113     0.0000    78.0000 </r>
       <r>    -0.1682     0.0000    78.0000 </r>
       <r>    -0.1250     0.0000    78.0000 </r>
       <r>    -0.0819     0.0000    78.0000 </r>
       <r>    -0.0388   151.0911    84.5174 </r>
       <r>     0.0044   416.5824   102.4871 </r>
       <r>     0.0475   385.5957   119.1201 </r>
       <r>     0.0906   159.4513   125.9981 </r>
       <r>     0.1338     0.0431   126.0000 </r>
       <r>     0.1769     0.0000   126.0000 </r>
       <r>     0.2200     0.0000   126.0000 </r>
       <r>     0.2632     0.0000   126.0000 </r>
       <r>     0.3063     0.0000   126.0000 </r>
       <r>     0.3494     0.0000   126.0000 </r>
       <r>     0.3926     0.0000   126.0000 </r>
       <r>     0.4357     0.0000   126.0000 </r>
       <r>     0.4789     0.0000   126.0000 </r>
       <r>     0.5220     0.0000   126.0000 </r>
       <r>     0.5651     0.0000   126.0000 </r>
       <r>     0.6083     0.0000   126.0000 </r>
       <r>     0.6514     0.0000   126.0000 </r>
       <r>     0.6945     0.0000   126.0000 </r>
       <r>     0.7377     0.0242   126.0010 </r>
       <r>     0.7808   185.3954   133.9982 </r>
       <r>     0.8239   370.6536   149.9867 </r>
       <r>     0.8671     0.3086   150.0000 </r>
       <r>     0.9102     5.5799   150.2407 </r>
       <r>     0.9533   203.2186   159.0067 </r>
       <r>     0.9965    69.3925   162.0000 </r>
       <r>     1.0396     0.0000   162.0000 </r>
       <r>     1.0828     0.0000   162.0000 </r>
       <r>     1.1259     0.0000   162.0000 </r>
       <r>     1.1690    58.6038   164.5279 </r>
       <r>     1.2122   175.1030   172.0811 </r>
       <r>     1.2553    44.4838   174.0000 </r>
       <r>     1.2984     0.0003   174.0000 </r>
       <r>     1.3416     0.0000   174.0000 </r>
       <r>     1.3847     0.0000   174.0000 </r>
       <r>     1.4278     0.0000   174.0000 </r>
       <r>     1.4710     0.0000   174.0000 </r>
       <r>     1.5141     0.0000   174.0000 </r>
       <r>     1.5573     0.0000   174.0000 </r>
       <r>     1.6004     0.0000   174.0000 </r>
       <r>     1.6435    38.6094   175.6655 </r>
       <r>     1.6867   239.5813   186.0000 </r>
       <r>     1.7298     0.0001   186.0000 </r>
       <r>     1.7729     0.0000   186.0000 </r>
       <r>     1.8161     0.0000   186.0000 </r>
       <r>     1.8592     0.0000   186.0000 </r>
       <r>     1.9023     0.0000   186.0000 </r>
       <r>     1.9455     0.0000   186.0000 </r>
       <r>     1.9886     0.0000   186.0000 </r>
       <r>     2.0317     0.0000   186.0000 </r>
       <r>     2.0749     0.0000   186.0000 </r>
       <r>     2.1180     0.0000   186.0000 </r>
       <r>     2.1612     0.0000   186.0000 </r>
       <r>     2.2043     0.0000   186.0000 </r>
       <r>     2.2474     0.0000   186.0000 </r>
       <r>     2.2906     0.0002   186.0000 </r>
       <r>     2.3337   306.5972   199.2253 </r>
       <r>     2.3768   144.5678   205.4614 </r>
       <r>     2.4200   105.2167   210.0000 </r>
       <r>     2.4631     0.0000   210.0000 </r>
       <r>     2.5062     0.0000   210.0000 </r>
       <r>     2.5494     0.0000   210.0000 </r>
       <r>     2.5925     0.0000   210.0000 </r>
       <r>     2.6356     0.0000   210.0000 </r>
       <r>     2.6788     0.0000   210.0000 </r>
       <r>     2.7219     0.0000   210.0000 </r>
       <r>     2.7651    62.2401   212.6848 </r>
       <r>     2.8082   354.4350   227.9736 </r>
       <r>     2.8513   140.5902   234.0381 </r>
       <r>     2.8945   158.6266   240.8806 </r>
       <r>     2.9376    72.3156   244.0000 </r>
       <r>     2.9807    81.3957   247.5111 </r>
       <r>     3.0239    57.6998   250.0000 </r>
       <r>     3.0670     0.0000   250.0000 </r>
       <r>     3.1101     0.0000   250.0000 </r>
       <r>     3.1533     0.0000   250.0000 </r>
       <r>     3.1964     0.0000   250.0000 </r>
       <r>     3.2395     0.0000   250.0000 </r>
       <r>     3.2827     0.0000   250.0000 </r>
       <r>     3.3258     0.0000   250.0000 </r>
       <r>     3.3690     0.0000   250.0000 </r>
       <r>     3.4121     0.0000   250.0000 </r>
       <r>     3.4552     0.0000   250.0000 </r>
       <r>     3.4984     0.0000   250.0000 </r>
       <r>     3.5415     0.0000   250.0000 </r>
       <r>     3.5846     0.0000   250.0000 </r>
       <r>     3.6278   114.8609   254.9546 </r>
       <r>     3.6709    24.2345   256.0000 </r>
       <r>     3.7140     0.0000   256.0000 </r>
       <r>     3.7572    38.8581   257.6762 </r>
       <r>     3.8003    85.2062   261.3516 </r>
       <r>     3.8435    15.0311   262.0000 </r>
       <r>     3.8866     0.0000   262.0000 </r>
       <r>     3.9297     0.1050   262.0045 </r>
       <r>     3.9729   138.7528   267.9898 </r>
       <r>     4.0160     0.2376   268.0000 </r>
       <r>     4.0591     0.0000   268.0000 </r>
       <r>     4.1023     0.0000   268.0000 </r>
       <r>     4.1454     0.0000   268.0000 </r>
       <r>     4.1885     0.0000   268.0000 </r>
       <r>     4.2317     0.0000   268.0000 </r>
       <r>     4.2748     0.0000   268.0000 </r>
       <r>     4.3179     0.0000   268.0000 </r>
       <r>     4.3611     0.0000   268.0000 </r>
       <r>     4.4042     0.0000   268.0000 </r>
       <r>     4.4474     0.0000   268.0000 </r>
       <r>     4.4905     0.0000   268.0000 </r>
       <r>     4.5336     0.0000   268.0000 </r>
       <r>     4.5768     0.0000   268.0000 </r>
       <r>     4.6199     0.0000   268.0000 </r>
       <r>     4.6630     0.0000   268.0000 </r>
       <r>     4.7062     0.1722   268.0074 </r>
       <r>     4.7493   105.9507   272.5777 </r>
       <r>     4.7924   172.6392   280.0246 </r>
       <r>     4.8356   146.1830   286.3304 </r>
       <r>     4.8787    38.7064   288.0000 </r>
       <r>     4.9218     0.0000   288.0000 </r>
       <r>     4.9650     0.0000   288.0000 </r>
       <r>     5.0081     0.0000   288.0000 </r>
       <r>     5.0513     0.0000   288.0000 </r>
       <r>     5.0944     0.0000   288.0000 </r>
       <r>     5.1375     0.0000   288.0000 </r>
       <r>     5.1807     0.0000   288.0000 </r>
       <r>     5.2238     0.0000   288.0000 </r>
       <r>     5.2669     0.0000   288.0000 </r>
       <r>     5.3101    80.4463   291.4701 </r>
       <r>     5.3532   344.1535   306.3155 </r>
       <r>     5.3963   317.1393   319.9955 </r>
       <r>     5.4395    73.9673   323.1862 </r>
       <r>     5.4826    18.8664   324.0000 </r>
       <r>     5.5257    19.2003   324.8282 </r>
       <r>     5.5689    27.1649   326.0000 </r>
       <r>     5.6120     0.0000   326.0000 </r>
       <r>     5.6552     0.0000   326.0000 </r>
       <r>     5.6983     0.0000   326.0000 </r>
       <r>     5.7414     0.0000   326.0000 </r>
       <r>     5.7846     0.0000   326.0000 </r>
       <r>     5.8277     0.0000   326.0000 </r>
       <r>     5.8708     0.0000   326.0000 </r>
       <r>     5.9140     0.0000   326.0000 </r>
       <r>     5.9571     0.0000   326.0000 </r>
       <r>     6.0002     0.0000   326.0000 </r>
       <r>     6.0434     0.0000   326.0000 </r>
       <r>     6.0865   124.6895   331.3786 </r>
       <r>     6.1297   154.8507   338.0582 </r>
       <r>     6.1728   230.4207   347.9976 </r>
       <r>     6.2159     0.0560   348.0000 </r>
       <r>     6.2591   117.1232   353.0522 </r>
       <r>     6.3022    68.3346   355.9999 </r>
       <r>     6.3453     0.0024   356.0000 </r>
       <r>     6.3885     0.0000   356.0000 </r>
       <r>     6.4316     0.0000   356.0000 </r>
       <r>     6.4747     0.0000   356.0000 </r>
       <r>     6.5179     0.0000   356.0000 </r>
       <r>     6.5610     0.0000   356.0000 </r>
       <r>     6.6041     0.0000   356.0000 </r>
       <r>     6.6473     0.0000   356.0000 </r>
       <r>     6.6904     0.0000   356.0000 </r>
       <r>     6.7336     0.0000   356.0000 </r>
       <r>     6.7767     0.0000   356.0000 </r>
       <r>     6.8198     0.0000   356.0000 </r>
       <r>     6.8630     0.0000   356.0000 </r>
      </set>
     </set>
    </array>
   </total>
  </dos>
 </calculation>
 <structure name="finalpos" >
  <crystal>
   <varray name="basis" >
    <v>      12.74739769       0.00000000       0.00000000 </v>
    <v>       0.00000000      12.74739769       0.00000000 </v>
    <v>       0.00000000       0.00000000      12.74739769 </v>
   </varray>
   <i name="volume">   2071.40301882 </i>
   <varray name="rec_basis" >
    <v>       0.07844738       0.00000000       0.00000000 </v>
    <v>       0.00000000       0.07844738       0.00000000 </v>
    <v>       0.00000000       0.00000000       0.07844738 </v>
   </varray>
  </crystal>
  <varray name="positions" >
   <v>       0.00000000       0.00000000       0.00000000 </v>
   <v>       0.50000000       0.00000000       0.00000000 </v>
   <v>       0.00000000       0.50000000       0.00000000 </v>
   <v>       0.50000000       0.50000000       0.00000000 </v>
   <v>       0.00000000       0.00000000       0.50000000 </v>
   <v>       0.50000000       0.00000000       0.50000000 </v>
   <v>       0.00000000       0.50000000       0.50000000 </v>
   <v>       0.50000000       0.50000000       0.50000000 </v>
   <v>       0.25140293       0.25140293       0.00000000 </v>
   <v>       0.74859707       0.25140293       0.00000000 </v>
   <v>       0.25140293       0.74859707       0.00000000 </v>
   <v>       0.74859707       0.74859707       0.00000000 </v>
   <v>       0.25012668       0.25012668       0.50000000 </v>
   <v>       0.74987332       0.25012668       0.50000000 </v>
   <v>       0.25012668       0.74987332       0.50000000 </v>
   <v>       0.74987332       0.74987332       0.50000000 </v>
   <v>       0.25140293       0.00000000       0.25140293 </v>
   <v>       0.74859707       0.00000000       0.25140293 </v>
   <v>       0.25012668       0.50000000       0.25012668 </v>
   <v>       0.74987332       0.50000000       0.25012668 </v>
   <v>       0.25140293       0.00000000       0.74859707 </v>
   <v>       0.74859707       0.00000000       0.74859707 </v>
   <v>       0.25012668       0.50000000       0.74987332 </v>
   <v>       0.74987332       0.50000000       0.74987332 </v>
   <v>       0.00000000       0.25140293       0.25140293 </v>
   <v>       0.50000000       0.25012668       0.25012668 </v>
   <v>       0.00000000       0.74859707       0.25140293 </v>
   <v>       0.50000000       0.74987332       0.25012668 </v>
   <v>       0.00000000       0.25140293       0.74859707 </v>
   <v>       0.50000000       0.25012668       0.74987332 </v>
   <v>       0.00000000       0.74859707       0.74859707 </v>
   <v>       0.50000000       0.74987332       0.74987332 </v>
   <v>       0.12960836       0.12960836       0.12960836 </v>
   <v>       0.62421357       0.12507203       0.12507203 </v>
   <v>       0.12507203       0.62421357       0.12507203 </v>
   <v>       0.62455273       0.62455273       0.12469540 </v>
   <v>       0.12507203       0.12507203       0.62421357 </v>
   <v>       0.62455273       0.12469540       0.62455273 </v>
   <v>       0.12469540       0.62455273       0.62455273 </v>
   <v>       0.62586686       0.62508239       0.62508239 </v>
   <v>       0.37578643       0.12507203       0.12507203 </v>
   <v>       0.87039164       0.12960836       0.12960836 </v>
   <v>       0.37544727       0.62455273       0.12469540 </v>
   <v>       0.87492797       0.62421357       0.12507203 </v>
   <v>       0.37544727       0.12469540       0.62455273 </v>
   <v>       0.87492797       0.12507203       0.62421357 </v>
   <v>       0.37491761       0.62508239       0.62508239 </v>
   <v>       0.87530460       0.62455273       0.62455273 </v>
   <v>       0.12507203       0.37578643       0.12507203 </v>
   <v>       0.62455273       0.37544727       0.12469540 </v>
   <v>       0.12960836       0.87039164       0.12960836 </v>
   <v>       0.62421357       0.87492797       0.12507203 </v>
   <v>       0.12469540       0.37544727       0.62455273 </v>
   <v>       0.62508239       0.37491761       0.62508239 </v>
   <v>       0.12507203       0.87492797       0.62421357 </v>
   <v>       0.62455273       0.87530460       0.62455273 </v>
   <v>       0.37544727       0.37544727       0.12469540 </v>
   <v>       0.87492797       0.37578643       0.12507203 </v>
   <v>       0.37578643       0.87492797       0.12507203 </v>
   <v>       0.87039164       0.87039164       0.12960836 </v>
   <v>       0.37491761       0.37491761       0.62508239 </v>
   <v>       0.87530460       0.37544727       0.62455273 </v>
   <v>       0.37544727       0.87530460       0.62455273 </v>
   <v>       0.87492797       0.87492797       0.62421357 </v>
   <v>       0.12507203       0.12507203       0.37578643 </v>
   <v>       0.62455273       0.12469540       0.37544727 </v>
   <v>       0.12469540       0.62455273       0.37544727 </v>
   <v>       0.62508239       0.62508239       0.37491761 </v>
   <v>       0.12960836       0.12960836       0.87039164 </v>
   <v>       0.62421357       0.12507203       0.87492797 </v>
   <v>       0.12507203       0.62421357       0.87492797 </v>
   <v>       0.62455273       0.62455273       0.87530460 </v>
   <v>       0.37544727       0.12469540       0.37544727 </v>
   <v>       0.87492797       0.12507203       0.37578643 </v>
   <v>       0.37491761       0.62508239       0.37491761 </v>
   <v>       0.87530460       0.62455273       0.37544727 </v>
   <v>       0.37578643       0.12507203       0.87492797 </v>
   <v>       0.87039164       0.12960836       0.87039164 </v>
   <v>       0.37544727       0.62455273       0.87530460 </v>
   <v>       0.87492797       0.62421357       0.87492797 </v>
   <v>       0.12469540       0.37544727       0.37544727 </v>
   <v>       0.62508239       0.37491761       0.37491761 </v>
   <v>       0.12507203       0.87492797       0.37578643 </v>
   <v>       0.62455273       0.87530460       0.37544727 </v>
   <v>       0.12507203       0.37578643       0.87492797 </v>
   <v>       0.62455273       0.37544727       0.87530460 </v>
   <v>       0.12960836       0.87039164       0.87039164 </v>
   <v>       0.62421357       0.87492797       0.87492797 </v>
   <v>       0.37491761       0.37491761       0.37491761 </v>
   <v>       0.87530460       0.37544727       0.37544727 </v>
   <v>       0.37544727       0.87530460       0.37544727 </v>
   <v>       0.87492797       0.87492797       0.37578643 </v>
   <v>       0.37544727       0.37544727       0.87530460 </v>
   <v>       0.87492797       0.37578643       0.87492797 </v>
   <v>       0.37578643       0.87492797       0.87492797 </v>
   <v>       0.87039164       0.87039164       0.87039164 </v>
  </varray>
 </structure>
</modeling>
