<?xml version="1.0" encoding="ISO-8859-1"?>
<modeling>
 <generator>
  <i name="program" type="string">vasp </i>
  <i name="version" type="string">5.4.4.18Apr17-6-g9f103f2a35  </i>
  <i name="subversion" type="string">(build Apr 28 2017 11:12:57) complex            parallel </i>
  <i name="platform" type="string">LinuxIFC </i>
  <i name="date" type="string">2018 06 27 </i>
  <i name="time" type="string">23:27:30 </i>
 </generator>
 <incar>
  <i type="string" name="PREC">accurate</i>
  <i type="int" name="IALGO">    38</i>
  <i type="int" name="IBRION">    -1</i>
  <i name="EDIFF">      0.00000001</i>
  <i type="int" name="ISYM">     0</i>
  <i name="ENCUT">    270.00000000</i>
  <i type="logical" name="LREAL"> F  </i>
  <i type="int" name="ISMEAR">     0</i>
  <i name="SIGMA">      0.01000000</i>
  <i type="logical" name="LWAVE"> F  </i>
  <i type="logical" name="LCHARG"> F  </i>
  <v type="int" name="KPOINT_BSE">    -1     0     0     0</v>
 </incar>
 <structure name="primitive_cell" >
  <crystal>
   <varray name="basis" >
    <v>      12.74739769       0.00000000       0.00000000 </v>
    <v>       0.00000000      12.74739769       0.00000000 </v>
    <v>       0.00000000       0.00000000      12.74739769 </v>
   </varray>
   <i name="volume">   2071.40301882 </i>
   <varray name="rec_basis" >
    <v>       0.07844738       0.00000000       0.00000000 </v>
    <v>       0.00000000       0.07844738       0.00000000 </v>
    <v>       0.00000000       0.00000000       0.07844738 </v>
   </varray>
  </crystal>
  <varray name="positions" >
   <v>       0.00000000       0.00000000       0.00000000 </v>
   <v>       0.12960836       0.12960836       0.12960836 </v>
   <v>      -0.12960836       0.12960836       0.12960836 </v>
   <v>       0.12960836      -0.12960836       0.12960836 </v>
   <v>      -0.12960836      -0.12960836       0.12960836 </v>
   <v>       0.12960836       0.12960836      -0.12960836 </v>
   <v>      -0.12960836       0.12960836      -0.12960836 </v>
   <v>       0.12960836      -0.12960836      -0.12960836 </v>
   <v>      -0.12960836      -0.12960836      -0.12960836 </v>
   <v>      -0.25140293       0.25140293       0.00000000 </v>
   <v>       0.25140293      -0.25140293       0.00000000 </v>
   <v>      -0.25140293      -0.25140293       0.00000000 </v>
   <v>       0.25140293       0.00000000       0.25140293 </v>
   <v>      -0.25140293       0.00000000       0.25140293 </v>
   <v>       0.25140293       0.00000000      -0.25140293 </v>
   <v>      -0.25140293       0.00000000      -0.25140293 </v>
   <v>       0.00000000       0.25140293       0.25140293 </v>
   <v>       0.00000000      -0.25140293       0.25140293 </v>
   <v>       0.00000000       0.25140293      -0.25140293 </v>
   <v>       0.00000000      -0.25140293      -0.25140293 </v>
   <v>       0.25195764       0.25140293       0.00055471 </v>
   <v>      -0.37578643       0.12507203       0.12507203 </v>
   <v>       0.12507203      -0.37578643       0.12507203 </v>
   <v>       0.12507203       0.12507203      -0.37578643 </v>
   <v>       0.37578643       0.12507203       0.12507203 </v>
   <v>      -0.12507203      -0.37578643       0.12507203 </v>
   <v>      -0.12507203       0.12507203      -0.37578643 </v>
   <v>       0.12507203       0.37578643       0.12507203 </v>
   <v>      -0.37578643      -0.12507203       0.12507203 </v>
   <v>       0.12507203      -0.12507203      -0.37578643 </v>
   <v>      -0.12507203       0.37578643       0.12507203 </v>
   <v>       0.37578643      -0.12507203       0.12507203 </v>
   <v>      -0.12507203      -0.12507203      -0.37578643 </v>
   <v>       0.12507203       0.12507203       0.37578643 </v>
   <v>      -0.37578643       0.12507203      -0.12507203 </v>
   <v>       0.12507203      -0.37578643      -0.12507203 </v>
   <v>      -0.12507203       0.12507203       0.37578643 </v>
   <v>       0.37578643       0.12507203      -0.12507203 </v>
   <v>      -0.12507203      -0.37578643      -0.12507203 </v>
   <v>       0.12507203      -0.12507203       0.37578643 </v>
   <v>       0.12507203       0.37578643      -0.12507203 </v>
   <v>      -0.37578643      -0.12507203      -0.12507203 </v>
   <v>      -0.12507203      -0.12507203       0.37578643 </v>
   <v>      -0.12507203       0.37578643      -0.12507203 </v>
   <v>       0.37578643      -0.12507203      -0.12507203 </v>
   <v>      -0.50000000       0.00000000       0.00000000 </v>
   <v>       0.00000000      -0.50000000       0.00000000 </v>
   <v>       0.00000000       0.00000000      -0.50000000 </v>
   <v>      -0.37544727      -0.37544727       0.12469540 </v>
   <v>      -0.37544727       0.12469540      -0.37544727 </v>
   <v>       0.12469540      -0.37544727      -0.37544727 </v>
   <v>       0.37544727      -0.37544727       0.12469540 </v>
   <v>       0.37544727       0.12469540      -0.37544727 </v>
   <v>      -0.12469540      -0.37544727      -0.37544727 </v>
   <v>      -0.37544727       0.37544727       0.12469540 </v>
   <v>       0.12469540       0.37544727      -0.37544727 </v>
   <v>      -0.37544727      -0.12469540      -0.37544727 </v>
   <v>       0.37544727       0.37544727       0.12469540 </v>
   <v>      -0.12469540       0.37544727      -0.37544727 </v>
   <v>       0.37544727      -0.12469540      -0.37544727 </v>
   <v>      -0.37544727       0.12469540       0.37544727 </v>
   <v>       0.12469540      -0.37544727       0.37544727 </v>
   <v>      -0.37544727      -0.37544727      -0.12469540 </v>
   <v>       0.37544727       0.12469540       0.37544727 </v>
   <v>      -0.12469540      -0.37544727       0.37544727 </v>
   <v>       0.37544727      -0.37544727      -0.12469540 </v>
   <v>       0.12469540       0.37544727       0.37544727 </v>
   <v>      -0.37544727      -0.12469540       0.37544727 </v>
   <v>      -0.37544727       0.37544727      -0.12469540 </v>
   <v>      -0.12469540       0.37544727       0.37544727 </v>
   <v>       0.37544727      -0.12469540       0.37544727 </v>
   <v>       0.37544727       0.37544727      -0.12469540 </v>
   <v>       0.25012668       0.25012668      -0.50000000 </v>
   <v>      -0.25012668       0.25012668      -0.50000000 </v>
   <v>       0.25012668      -0.25012668      -0.50000000 </v>
   <v>      -0.25012668      -0.25012668      -0.50000000 </v>
   <v>       0.25012668      -0.50000000       0.25012668 </v>
   <v>      -0.25012668      -0.50000000       0.25012668 </v>
   <v>       0.25012668      -0.50000000      -0.25012668 </v>
   <v>      -0.25012668      -0.50000000      -0.25012668 </v>
   <v>      -0.50000000       0.25012668       0.25012668 </v>
   <v>      -0.50000000      -0.25012668       0.25012668 </v>
   <v>      -0.50000000       0.25012668      -0.25012668 </v>
   <v>      -0.50000000      -0.25012668      -0.25012668 </v>
   <v>      -0.37491761      -0.37491761      -0.37491761 </v>
   <v>       0.37491761      -0.37491761      -0.37491761 </v>
   <v>      -0.37491761       0.37491761      -0.37491761 </v>
   <v>       0.37491761       0.37491761      -0.37491761 </v>
   <v>      -0.37491761      -0.37491761       0.37491761 </v>
   <v>       0.37491761      -0.37491761       0.37491761 </v>
   <v>      -0.37491761       0.37491761       0.37491761 </v>
   <v>       0.37491761       0.37491761       0.37491761 </v>
   <v>      -0.50000000      -0.50000000       0.00000000 </v>
   <v>      -0.50000000       0.00000000      -0.50000000 </v>
   <v>       0.00000000      -0.50000000      -0.50000000 </v>
   <v>      -0.50000000      -0.50000000      -0.50000000 </v>
  </varray>
 </structure>
 <varray name="primitive_index" >
  <v type="int" >        1 </v>
  <v type="int" >       33 </v>
  <v type="int" >       42 </v>
  <v type="int" >       51 </v>
  <v type="int" >       60 </v>
  <v type="int" >       69 </v>
  <v type="int" >       78 </v>
  <v type="int" >       87 </v>
  <v type="int" >       96 </v>
  <v type="int" >       10 </v>
  <v type="int" >       11 </v>
  <v type="int" >       12 </v>
  <v type="int" >       17 </v>
  <v type="int" >       18 </v>
  <v type="int" >       21 </v>
  <v type="int" >       22 </v>
  <v type="int" >       25 </v>
  <v type="int" >       27 </v>
  <v type="int" >       29 </v>
  <v type="int" >       31 </v>
  <v type="int" >        9 </v>
  <v type="int" >       34 </v>
  <v type="int" >       35 </v>
  <v type="int" >       37 </v>
  <v type="int" >       41 </v>
  <v type="int" >       44 </v>
  <v type="int" >       46 </v>
  <v type="int" >       49 </v>
  <v type="int" >       52 </v>
  <v type="int" >       55 </v>
  <v type="int" >       58 </v>
  <v type="int" >       59 </v>
  <v type="int" >       64 </v>
  <v type="int" >       65 </v>
  <v type="int" >       70 </v>
  <v type="int" >       71 </v>
  <v type="int" >       74 </v>
  <v type="int" >       77 </v>
  <v type="int" >       80 </v>
  <v type="int" >       83 </v>
  <v type="int" >       85 </v>
  <v type="int" >       88 </v>
  <v type="int" >       92 </v>
  <v type="int" >       94 </v>
  <v type="int" >       95 </v>
  <v type="int" >        2 </v>
  <v type="int" >        3 </v>
  <v type="int" >        5 </v>
  <v type="int" >       36 </v>
  <v type="int" >       38 </v>
  <v type="int" >       39 </v>
  <v type="int" >       43 </v>
  <v type="int" >       45 </v>
  <v type="int" >       48 </v>
  <v type="int" >       50 </v>
  <v type="int" >       53 </v>
  <v type="int" >       56 </v>
  <v type="int" >       57 </v>
  <v type="int" >       62 </v>
  <v type="int" >       63 </v>
  <v type="int" >       66 </v>
  <v type="int" >       67 </v>
  <v type="int" >       72 </v>
  <v type="int" >       73 </v>
  <v type="int" >       76 </v>
  <v type="int" >       79 </v>
  <v type="int" >       81 </v>
  <v type="int" >       84 </v>
  <v type="int" >       86 </v>
  <v type="int" >       90 </v>
  <v type="int" >       91 </v>
  <v type="int" >       93 </v>
  <v type="int" >       13 </v>
  <v type="int" >       14 </v>
  <v type="int" >       15 </v>
  <v type="int" >       16 </v>
  <v type="int" >       19 </v>
  <v type="int" >       20 </v>
  <v type="int" >       23 </v>
  <v type="int" >       24 </v>
  <v type="int" >       26 </v>
  <v type="int" >       28 </v>
  <v type="int" >       30 </v>
  <v type="int" >       32 </v>
  <v type="int" >       40 </v>
  <v type="int" >       47 </v>
  <v type="int" >       54 </v>
  <v type="int" >       61 </v>
  <v type="int" >       68 </v>
  <v type="int" >       75 </v>
  <v type="int" >       82 </v>
  <v type="int" >       89 </v>
  <v type="int" >        4 </v>
  <v type="int" >        6 </v>
  <v type="int" >        7 </v>
  <v type="int" >        8 </v>
 </varray>
 <kpoints>
  <generation param="Gamma">
   <v type="int" name="divisions">       1        1        1 </v>
   <v name="usershift">      0.00000000       0.00000000       0.00000000 </v>
   <v name="genvec1">      1.00000000       0.00000000       0.00000000 </v>
   <v name="genvec2">      0.00000000       1.00000000       0.00000000 </v>
   <v name="genvec3">      0.00000000       0.00000000       1.00000000 </v>
   <v name="shift">      0.00000000       0.00000000       0.00000000 </v>
  </generation>
  <varray name="kpointlist" >
   <v>       0.00000000       0.00000000       0.00000000 </v>
  </varray>
  <varray name="weights" >
   <v>       1.00000000 </v>
  </varray>
 </kpoints>
 <parameters>
  <separator name="general" >
   <i type="string" name="SYSTEM">unknown system</i>
   <i type="logical" name="LCOMPAT"> F  </i>
  </separator>
  <separator name="electronic" >
   <i type="string" name="PREC">accura</i>
   <i name="ENMAX">    270.00000000</i>
   <i name="ENAUG">    454.73400000</i>
   <i name="EDIFF">      0.00000001</i>
   <i type="int" name="IALGO">    38</i>
   <i type="int" name="IWAVPR">    10</i>
   <i type="int" name="NBANDS">   178</i>
   <i name="NELECT">    256.00000000</i>
   <i type="int" name="TURBO">     0</i>
   <i type="int" name="IRESTART">     0</i>
   <i type="int" name="NREBOOT">     0</i>
   <i type="int" name="NMIN">     0</i>
   <i name="EREF">      0.00000000</i>
   <separator name="electronic smearing" >
    <i type="int" name="ISMEAR">     0</i>
    <i name="SIGMA">      0.01000000</i>
    <i name="KSPACING">      0.50000000</i>
    <i type="logical" name="KGAMMA"> T  </i>
   </separator>
   <separator name="electronic projectors" >
    <i type="logical" name="LREAL"> F  </i>
    <v name="ROPT">      0.00000000      0.00000000      0.00000000</v>
    <i type="int" name="LMAXPAW">  -100</i>
    <i type="int" name="LMAXMIX">     2</i>
    <i type="logical" name="NLSPLINE"> F  </i>
   </separator>
   <separator name="electronic startup" >
    <i type="int" name="ISTART">     0</i>
    <i type="int" name="ICHARG">     2</i>
    <i type="int" name="INIWAV">     1</i>
   </separator>
   <separator name="electronic spin" >
    <i type="int" name="ISPIN">     1</i>
    <i type="logical" name="LNONCOLLINEAR"> F  </i>
    <v name="MAGMOM">      1.00000000      1.00000000      1.00000000      1.00000000      1.00000000      1.00000000      1.00000000      1.00000000      1.00000000      1.00000000      1.00000000      1.00000000      1.00000000      1.00000000      1.00000000      1.00000000      1.00000000      1.00000000      1.00000000      1.00000000
      1.00000000      1.00000000      1.00000000      1.00000000      1.00000000      1.00000000      1.00000000      1.00000000      1.00000000      1.00000000      1.00000000      1.00000000      1.00000000      1.00000000      1.00000000      1.00000000      1.00000000      1.00000000      1.00000000      1.00000000
      1.00000000      1.00000000      1.00000000      1.00000000      1.00000000      1.00000000      1.00000000      1.00000000      1.00000000      1.00000000      1.00000000      1.00000000      1.00000000      1.00000000      1.00000000      1.00000000      1.00000000      1.00000000      1.00000000      1.00000000
      1.00000000      1.00000000      1.00000000      1.00000000      1.00000000      1.00000000      1.00000000      1.00000000      1.00000000      1.00000000      1.00000000      1.00000000      1.00000000      1.00000000      1.00000000      1.00000000      1.00000000      1.00000000      1.00000000      1.00000000
      1.00000000      1.00000000      1.00000000      1.00000000      1.00000000      1.00000000      1.00000000      1.00000000      1.00000000      1.00000000      1.00000000      1.00000000      1.00000000      1.00000000      1.00000000      1.00000000</v>
    <i name="NUPDOWN">     -1.00000000</i>
    <i type="logical" name="LSORBIT"> F  </i>
    <v name="SAXIS">      0.00000000      0.00000000      1.00000000</v>
    <i type="logical" name="LSPIRAL"> F  </i>
    <v name="QSPIRAL">      0.00000000      0.00000000      0.00000000</v>
    <i type="logical" name="LZEROZ"> F  </i>
   </separator>
   <separator name="electronic exchange-correlation" >
    <i type="logical" name="LASPH"> F  </i>
    <i type="logical" name="LMETAGGA"> F  </i>
   </separator>
   <separator name="electronic convergence" >
    <i type="int" name="NELM">    60</i>
    <i type="int" name="NELMDL">    -5</i>
    <i type="int" name="NELMIN">     2</i>
    <i name="ENINI">    270.00000000</i>
    <separator name="electronic convergence detail" >
     <i type="logical" name="LDIAG"> T  </i>
     <i type="logical" name="LSUBROT"> F  </i>
     <i name="WEIMIN">      0.00000000</i>
     <i name="EBREAK">      0.00000000</i>
     <i name="DEPER">      0.30000000</i>
     <i type="int" name="NRMM">     4</i>
     <i name="TIME">      0.40000000</i>
    </separator>
   </separator>
   <separator name="electronic mixer" >
    <i name="AMIX">      0.40000000</i>
    <i name="BMIX">      1.00000000</i>
    <i name="AMIN">      0.10000000</i>
    <i name="AMIX_MAG">      1.60000000</i>
    <i name="BMIX_MAG">      1.00000000</i>
    <separator name="electronic mixer details" >
     <i type="int" name="IMIX">     4</i>
     <i type="logical" name="MIXFIRST"> F  </i>
     <i type="int" name="MAXMIX">   -45</i>
     <i name="WC">    100.00000000</i>
     <i type="int" name="INIMIX">     1</i>
     <i type="int" name="MIXPRE">     1</i>
     <i type="int" name="MREMOVE">     5</i>
    </separator>
   </separator>
   <separator name="electronic dipolcorrection" >
    <i type="logical" name="LDIPOL"> F  </i>
    <i type="logical" name="LMONO"> F  </i>
    <i type="int" name="IDIPOL">     0</i>
    <i name="EPSILON">      1.00000000</i>
    <v name="DIPOL">   -100.00000000   -100.00000000   -100.00000000</v>
    <i name="EFIELD">      0.00000000</i>
   </separator>
  </separator>
  <separator name="grids" >
   <i type="int" name="NGX">    70</i>
   <i type="int" name="NGY">    70</i>
   <i type="int" name="NGZ">    70</i>
   <i type="int" name="NGXF">   140</i>
   <i type="int" name="NGYF">   140</i>
   <i type="int" name="NGZF">   140</i>
   <i type="logical" name="ADDGRID"> F  </i>
  </separator>
  <separator name="ionic" >
   <i type="int" name="NSW">     0</i>
   <i type="int" name="IBRION">    -1</i>
   <i type="int" name="MDALGO">     0</i>
   <i type="int" name="ISIF">     2</i>
   <i name="PSTRESS">      0.00000000</i>
   <i name="EDIFFG">      0.00000010</i>
   <i type="int" name="NFREE">     0</i>
   <i name="POTIM">      0.50000000</i>
   <i name="SMASS">     -3.00000000</i>
   <i name="SCALEE">      1.00000000</i>
  </separator>
  <separator name="ionic md" >
   <i name="TEBEG">      0.00010000</i>
   <i name="TEEND">      0.00010000</i>
   <i type="int" name="NBLOCK">     1</i>
   <i type="int" name="KBLOCK">     1</i>
   <i type="int" name="NPACO">   256</i>
   <i name="APACO">     16.00000000</i>
  </separator>
  <separator name="symmetry" >
   <i type="int" name="ISYM">     0</i>
   <i name="SYMPREC">      0.00001000</i>
  </separator>
  <separator name="dos" >
   <i type="int" name="LORBIT">     0</i>
   <v name="RWIGS">     -1.00000000     -1.00000000     -1.00000000</v>
   <i type="int" name="NEDOS">   301</i>
   <i name="EMIN">     10.00000000</i>
   <i name="EMAX">    -10.00000000</i>
   <i name="EFERMI">      0.00000000</i>
  </separator>
  <separator name="writing" >
   <i type="int" name="NWRITE">     2</i>
   <i type="logical" name="LWAVE"> F  </i>
   <i type="logical" name="LDOWNSAMPLE"> F  </i>
   <i type="logical" name="LCHARG"> F  </i>
   <i type="logical" name="LPARD"> F  </i>
   <i type="logical" name="LVTOT"> F  </i>
   <i type="logical" name="LVHAR"> F  </i>
   <i type="logical" name="LELF"> F  </i>
   <i type="logical" name="LOPTICS"> F  </i>
   <v name="STM">      0.00000000      0.00000000      0.00000000      0.00000000      0.00000000      0.00000000      0.00000000</v>
  </separator>
  <separator name="performance" >
   <i type="int" name="NPAR">     2</i>
   <i type="int" name="NSIM">     4</i>
   <i type="int" name="NBLK">    -1</i>
   <i type="logical" name="LPLANE"> T  </i>
   <i type="logical" name="LSCALAPACK"> T  </i>
   <i type="logical" name="LSCAAWARE"> F  </i>
   <i type="logical" name="LSCALU"> F  </i>
   <i type="logical" name="LASYNC"> F  </i>
   <i type="logical" name="LORBITALREAL"> F  </i>
  </separator>
  <separator name="miscellaneous" >
   <i type="int" name="IDIOT">     3</i>
   <i type="int" name="ISPECIAL">     0</i>
   <i type="logical" name="LMUSIC"> F  </i>
   <v name="POMASS">    118.71000000     28.08500000     24.30500000</v>
   <v name="DARWINR">      0.00000000      0.00000000      0.00000000</v>
   <v name="DARWINV">      1.00000000      1.00000000      1.00000000</v>
   <i type="logical" name="LCORR"> T  </i>
  </separator>
  <i type="logical" name="GGA_COMPAT"> T  </i>
  <i type="logical" name="LBERRY"> F  </i>
  <i type="int" name="ICORELEVEL">     0</i>
  <i type="logical" name="LDAU"> F  </i>
  <i type="int" name="I_CONSTRAINED_M">     0</i>
  <separator name="electronic exchange-correlation" >
   <i type="string" name="GGA">--</i>
   <i type="int" name="VOSKOWN">     0</i>
   <i type="logical" name="LHFCALC"> F  </i>
   <i type="string" name="PRECFOCK"></i>
   <i type="logical" name="LSYMGRAD"> F  </i>
   <i type="logical" name="LHFONE"> F  </i>
   <i type="logical" name="LRHFCALC"> F  </i>
   <i type="logical" name="LTHOMAS"> F  </i>
   <i type="logical" name="LMODELHF"> F  </i>
   <i name="ENCUT4O">     -1.00000000</i>
   <i type="int" name="EXXOEP">     0</i>
   <i type="int" name="FOURORBIT">     0</i>
   <i name="AEXX">      0.00000000</i>
   <i name="HFALPHA">      0.00000000</i>
   <i name="MCALPHA">      0.00000000</i>
   <i name="ALDAX">      1.00000000</i>
   <i name="AGGAX">      1.00000000</i>
   <i name="ALDAC">      1.00000000</i>
   <i name="AGGAC">      1.00000000</i>
   <i type="int" name="NKREDX">     1</i>
   <i type="int" name="NKREDY">     1</i>
   <i type="int" name="NKREDZ">     1</i>
   <i type="logical" name="SHIFTRED"> F  </i>
   <i type="logical" name="ODDONLY"> F  </i>
   <i type="logical" name="EVENONLY"> F  </i>
   <i type="int" name="LMAXFOCK">     0</i>
   <i type="int" name="NMAXFOCKAE">     0</i>
   <i type="logical" name="LFOCKAEDFT"> F  </i>
   <i name="HFSCREEN">      0.00000000</i>
   <i name="HFSCREENC">      0.00000000</i>
   <i type="int" name="NBANDSGWLOW">     0</i>
  </separator>
  <separator name="vdW DFT" >
   <i type="logical" name="LUSE_VDW"> F  </i>
   <i name="Zab_VDW">     -0.84910000</i>
   <i name="PARAM1">      0.12340000</i>
   <i name="PARAM2">      1.00000000</i>
   <i name="PARAM3">      0.00000000</i>
  </separator>
  <separator name="model GW" >
   <i type="int" name="MODEL_GW">     0</i>
   <i name="MODEL_EPS0">     12.94626887</i>
   <i name="MODEL_ALPHA">      1.00000000</i>
  </separator>
  <separator name="linear response parameters" >
   <i type="logical" name="LEPSILON"> F  </i>
   <i type="logical" name="LRPA"> F  </i>
   <i type="logical" name="LNABLA"> F  </i>
   <i type="logical" name="LVEL"> F  </i>
   <i type="int" name="KINTER">     0</i>
   <i name="CSHIFT">      0.10000000</i>
   <i name="OMEGAMAX">     -1.00000000</i>
   <i name="DEG_THRESHOLD">      0.00200000</i>
   <i name="RTIME">     -0.10000000</i>
   <i name="WPLASMAI">      0.00000000</i>
   <v name="DFIELD">      0.00000000      0.00000000      0.00000000</v>
   <v name="WPLASMA">      0.00000000      0.00000000      0.00000000      0.00000000      0.00000000      0.00000000      0.00000000      0.00000000      0.00000000</v>
  </separator>
  <separator name="orbital magnetization" >
   <i type="logical" name="NUCIND"> F  </i>
   <v name="MAGPOS">      0.00000000      0.00000000      0.00000000</v>
   <i type="logical" name="LNICSALL"> T  </i>
   <i type="logical" name="ORBITALMAG"> F  </i>
   <i type="logical" name="LMAGBLOCH"> F  </i>
   <i type="logical" name="LCHIMAG"> F  </i>
   <i type="logical" name="LGAUGE"> T  </i>
   <i type="int" name="MAGATOM">     0</i>
   <v name="MAGDIPOL">      0.00000000      0.00000000      0.00000000</v>
   <v name="AVECCONST">      0.00000000      0.00000000      0.00000000</v>
  </separator>
  <separator name="response functions" >
   <i type="logical" name="LADDER"> F  </i>
   <i type="logical" name="LRPAFORCE"> F  </i>
   <i type="logical" name="LFXC"> F  </i>
   <i type="logical" name="LHARTREE"> T  </i>
   <i type="int" name="IBSE">     0</i>
   <v type="int" name="KPOINT">    -1     0     0     0</v>
   <i type="logical" name="LTCTE"> F  </i>
   <i type="logical" name="LTETE"> F  </i>
   <i type="logical" name="LTRIPLET"> F  </i>
   <i type="logical" name="LFXCEPS"> F  </i>
   <i type="logical" name="LFXHEG"> F  </i>
   <i type="int" name="NATURALO">     2</i>
   <i type="logical" name="L2ORDER"> F  </i>
   <i type="logical" name="LMP2LT"> F  </i>
   <i type="logical" name="LUSEW"> F  </i>
   <i name="ENCUTGW">     -2.00000000</i>
   <i name="ENCUTGWSOFT">     -2.00000000</i>
   <i name="ENCUTLF">     -1.00000000</i>
   <i type="int" name="LMAXMP2">    -1</i>
   <i name="SCISSOR">      0.00000000</i>
   <i type="int" name="NOMEGA">     0</i>
   <i type="int" name="NOMEGAR">     0</i>
   <i type="int" name="NBANDSGW">    -1</i>
   <i type="int" name="NBANDSO">    -1</i>
   <i type="int" name="NBANDSV">    -1</i>
   <i type="int" name="NELM">     1</i>
   <i type="int" name="NELMHF">     1</i>
   <i type="int" name="DIM">     3</i>
   <i type="int" name="ANTIRES">     0</i>
   <i name="OMEGAMAX">    -30.00000000</i>
   <i name="OMEGAMIN">    -30.00000000</i>
   <i name="OMEGATL">   -200.00000000</i>
   <i type="int" name="OMEGAGRID">   140</i>
   <i name="CSHIFT">     -0.10000000</i>
   <i type="logical" name="SELFENERGY"> F  </i>
   <i type="logical" name="LSPECTRAL"> F  </i>
   <i type="logical" name="LSPECTRALGW"> F  </i>
   <i type="logical" name="LSINGLES"> F  </i>
   <i type="logical" name="LFERMIGW"> F  </i>
   <i type="logical" name="ODDONLYGW"> F  </i>
   <i type="logical" name="EVENONLYGW"> F  </i>
   <i type="int" name="NKREDLFX">     1</i>
   <i type="int" name="NKREDLFY">     1</i>
   <i type="int" name="NKREDLFZ">     1</i>
   <i type="int" name="MAXMEM">  2800</i>
   <i type="int" name="TELESCOPE">     0</i>
   <i type="int" name="TAUPAR">     1</i>
   <i type="int" name="OMEGAPAR">    -1</i>
   <i name="LAMBDA">      1.00000000</i>
  </separator>
  <separator name="External order field" >
   <i name="OFIELD_KAPPA">      0.00000000</i>
   <v name="OFIELD_K">      0.00000000      0.00000000      0.00000000</v>
   <i name="OFIELD_Q6_NEAR">      0.00000000</i>
   <i name="OFIELD_Q6_FAR">      0.00000000</i>
   <i name="OFIELD_A">      0.00000000</i>
  </separator>
 </parameters>
 <atominfo>
  <atoms>      96 </atoms>
  <types>       3 </types>
  <array name="atoms" >
   <dimension dim="1">ion</dimension>
   <field type="string">element</field>
   <field type="int">atomtype</field>
   <set>
    <rc><c>Sn</c><c>   1</c></rc>
    <rc><c>Si</c><c>   2</c></rc>
    <rc><c>Si</c><c>   2</c></rc>
    <rc><c>Si</c><c>   2</c></rc>
    <rc><c>Si</c><c>   2</c></rc>
    <rc><c>Si</c><c>   2</c></rc>
    <rc><c>Si</c><c>   2</c></rc>
    <rc><c>Si</c><c>   2</c></rc>
    <rc><c>Si</c><c>   2</c></rc>
    <rc><c>Si</c><c>   2</c></rc>
    <rc><c>Si</c><c>   2</c></rc>
    <rc><c>Si</c><c>   2</c></rc>
    <rc><c>Si</c><c>   2</c></rc>
    <rc><c>Si</c><c>   2</c></rc>
    <rc><c>Si</c><c>   2</c></rc>
    <rc><c>Si</c><c>   2</c></rc>
    <rc><c>Si</c><c>   2</c></rc>
    <rc><c>Si</c><c>   2</c></rc>
    <rc><c>Si</c><c>   2</c></rc>
    <rc><c>Si</c><c>   2</c></rc>
    <rc><c>Si</c><c>   2</c></rc>
    <rc><c>Si</c><c>   2</c></rc>
    <rc><c>Si</c><c>   2</c></rc>
    <rc><c>Si</c><c>   2</c></rc>
    <rc><c>Si</c><c>   2</c></rc>
    <rc><c>Si</c><c>   2</c></rc>
    <rc><c>Si</c><c>   2</c></rc>
    <rc><c>Si</c><c>   2</c></rc>
    <rc><c>Si</c><c>   2</c></rc>
    <rc><c>Si</c><c>   2</c></rc>
    <rc><c>Si</c><c>   2</c></rc>
    <rc><c>Si</c><c>   2</c></rc>
    <rc><c>Mg</c><c>   3</c></rc>
    <rc><c>Mg</c><c>   3</c></rc>
    <rc><c>Mg</c><c>   3</c></rc>
    <rc><c>Mg</c><c>   3</c></rc>
    <rc><c>Mg</c><c>   3</c></rc>
    <rc><c>Mg</c><c>   3</c></rc>
    <rc><c>Mg</c><c>   3</c></rc>
    <rc><c>Mg</c><c>   3</c></rc>
    <rc><c>Mg</c><c>   3</c></rc>
    <rc><c>Mg</c><c>   3</c></rc>
    <rc><c>Mg</c><c>   3</c></rc>
    <rc><c>Mg</c><c>   3</c></rc>
    <rc><c>Mg</c><c>   3</c></rc>
    <rc><c>Mg</c><c>   3</c></rc>
    <rc><c>Mg</c><c>   3</c></rc>
    <rc><c>Mg</c><c>   3</c></rc>
    <rc><c>Mg</c><c>   3</c></rc>
    <rc><c>Mg</c><c>   3</c></rc>
    <rc><c>Mg</c><c>   3</c></rc>
    <rc><c>Mg</c><c>   3</c></rc>
    <rc><c>Mg</c><c>   3</c></rc>
    <rc><c>Mg</c><c>   3</c></rc>
    <rc><c>Mg</c><c>   3</c></rc>
    <rc><c>Mg</c><c>   3</c></rc>
    <rc><c>Mg</c><c>   3</c></rc>
    <rc><c>Mg</c><c>   3</c></rc>
    <rc><c>Mg</c><c>   3</c></rc>
    <rc><c>Mg</c><c>   3</c></rc>
    <rc><c>Mg</c><c>   3</c></rc>
    <rc><c>Mg</c><c>   3</c></rc>
    <rc><c>Mg</c><c>   3</c></rc>
    <rc><c>Mg</c><c>   3</c></rc>
    <rc><c>Mg</c><c>   3</c></rc>
    <rc><c>Mg</c><c>   3</c></rc>
    <rc><c>Mg</c><c>   3</c></rc>
    <rc><c>Mg</c><c>   3</c></rc>
    <rc><c>Mg</c><c>   3</c></rc>
    <rc><c>Mg</c><c>   3</c></rc>
    <rc><c>Mg</c><c>   3</c></rc>
    <rc><c>Mg</c><c>   3</c></rc>
    <rc><c>Mg</c><c>   3</c></rc>
    <rc><c>Mg</c><c>   3</c></rc>
    <rc><c>Mg</c><c>   3</c></rc>
    <rc><c>Mg</c><c>   3</c></rc>
    <rc><c>Mg</c><c>   3</c></rc>
    <rc><c>Mg</c><c>   3</c></rc>
    <rc><c>Mg</c><c>   3</c></rc>
    <rc><c>Mg</c><c>   3</c></rc>
    <rc><c>Mg</c><c>   3</c></rc>
    <rc><c>Mg</c><c>   3</c></rc>
    <rc><c>Mg</c><c>   3</c></rc>
    <rc><c>Mg</c><c>   3</c></rc>
    <rc><c>Mg</c><c>   3</c></rc>
    <rc><c>Mg</c><c>   3</c></rc>
    <rc><c>Mg</c><c>   3</c></rc>
    <rc><c>Mg</c><c>   3</c></rc>
    <rc><c>Mg</c><c>   3</c></rc>
    <rc><c>Mg</c><c>   3</c></rc>
    <rc><c>Mg</c><c>   3</c></rc>
    <rc><c>Mg</c><c>   3</c></rc>
    <rc><c>Mg</c><c>   3</c></rc>
    <rc><c>Mg</c><c>   3</c></rc>
    <rc><c>Mg</c><c>   3</c></rc>
    <rc><c>Mg</c><c>   3</c></rc>
   </set>
  </array>
  <array name="atomtypes" >
   <dimension dim="1">type</dimension>
   <field type="int">atomspertype</field>
   <field type="string">element</field>
   <field>mass</field>
   <field>valence</field>
   <field type="string">pseudopotential</field>
   <set>
    <rc><c>   1</c><c>Sn</c><c>    118.71000000</c><c>      4.00000000</c><c>  PAW_PBE Sn 08Apr2002                  </c></rc>
    <rc><c>  31</c><c>Si</c><c>     28.08500000</c><c>      4.00000000</c><c>  PAW_PBE Si 05Jan2001                  </c></rc>
    <rc><c>  64</c><c>Mg</c><c>     24.30500000</c><c>      2.00000000</c><c>  PAW_PBE Mg 13Apr2007                  </c></rc>
   </set>
  </array>
 </atominfo>
 <structure name="initialpos" >
  <crystal>
   <varray name="basis" >
    <v>      12.74739769       0.00000000       0.00000000 </v>
    <v>       0.00000000      12.74739769       0.00000000 </v>
    <v>       0.00000000       0.00000000      12.74739769 </v>
   </varray>
   <i name="volume">   2071.40301882 </i>
   <varray name="rec_basis" >
    <v>       0.07844738       0.00000000       0.00000000 </v>
    <v>       0.00000000       0.07844738       0.00000000 </v>
    <v>       0.00000000       0.00000000       0.07844738 </v>
   </varray>
  </crystal>
  <varray name="positions" >
   <v>       0.00000000       0.00000000       0.00000000 </v>
   <v>       0.50000000       0.00000000       0.00000000 </v>
   <v>       0.00000000       0.50000000       0.00000000 </v>
   <v>       0.50000000       0.50000000       0.00000000 </v>
   <v>       0.00000000       0.00000000       0.50000000 </v>
   <v>       0.50000000       0.00000000       0.50000000 </v>
   <v>       0.00000000       0.50000000       0.50000000 </v>
   <v>       0.50000000       0.50000000       0.50000000 </v>
   <v>       0.25195764       0.25140293       0.00055471 </v>
   <v>       0.74859707       0.25140293       0.00000000 </v>
   <v>       0.25140293       0.74859707       0.00000000 </v>
   <v>       0.74859707       0.74859707       0.00000000 </v>
   <v>       0.25012668       0.25012668       0.50000000 </v>
   <v>       0.74987332       0.25012668       0.50000000 </v>
   <v>       0.25012668       0.74987332       0.50000000 </v>
   <v>       0.74987332       0.74987332       0.50000000 </v>
   <v>       0.25140293       0.00000000       0.25140293 </v>
   <v>       0.74859707       0.00000000       0.25140293 </v>
   <v>       0.25012668       0.50000000       0.25012668 </v>
   <v>       0.74987332       0.50000000       0.25012668 </v>
   <v>       0.25140293       0.00000000       0.74859707 </v>
   <v>       0.74859707       0.00000000       0.74859707 </v>
   <v>       0.25012668       0.50000000       0.74987332 </v>
   <v>       0.74987332       0.50000000       0.74987332 </v>
   <v>       0.00000000       0.25140293       0.25140293 </v>
   <v>       0.50000000       0.25012668       0.25012668 </v>
   <v>       0.00000000       0.74859707       0.25140293 </v>
   <v>       0.50000000       0.74987332       0.25012668 </v>
   <v>       0.00000000       0.25140293       0.74859707 </v>
   <v>       0.50000000       0.25012668       0.74987332 </v>
   <v>       0.00000000       0.74859707       0.74859707 </v>
   <v>       0.50000000       0.74987332       0.74987332 </v>
   <v>       0.12960836       0.12960836       0.12960836 </v>
   <v>       0.62421357       0.12507203       0.12507203 </v>
   <v>       0.12507203       0.62421357       0.12507203 </v>
   <v>       0.62455273       0.62455273       0.12469540 </v>
   <v>       0.12507203       0.12507203       0.62421357 </v>
   <v>       0.62455273       0.12469540       0.62455273 </v>
   <v>       0.12469540       0.62455273       0.62455273 </v>
   <v>       0.62508239       0.62508239       0.62508239 </v>
   <v>       0.37578643       0.12507203       0.12507203 </v>
   <v>       0.87039164       0.12960836       0.12960836 </v>
   <v>       0.37544727       0.62455273       0.12469540 </v>
   <v>       0.87492797       0.62421357       0.12507203 </v>
   <v>       0.37544727       0.12469540       0.62455273 </v>
   <v>       0.87492797       0.12507203       0.62421357 </v>
   <v>       0.37491761       0.62508239       0.62508239 </v>
   <v>       0.87530460       0.62455273       0.62455273 </v>
   <v>       0.12507203       0.37578643       0.12507203 </v>
   <v>       0.62455273       0.37544727       0.12469540 </v>
   <v>       0.12960836       0.87039164       0.12960836 </v>
   <v>       0.62421357       0.87492797       0.12507203 </v>
   <v>       0.12469540       0.37544727       0.62455273 </v>
   <v>       0.62508239       0.37491761       0.62508239 </v>
   <v>       0.12507203       0.87492797       0.62421357 </v>
   <v>       0.62455273       0.87530460       0.62455273 </v>
   <v>       0.37544727       0.37544727       0.12469540 </v>
   <v>       0.87492797       0.37578643       0.12507203 </v>
   <v>       0.37578643       0.87492797       0.12507203 </v>
   <v>       0.87039164       0.87039164       0.12960836 </v>
   <v>       0.37491761       0.37491761       0.62508239 </v>
   <v>       0.87530460       0.37544727       0.62455273 </v>
   <v>       0.37544727       0.87530460       0.62455273 </v>
   <v>       0.87492797       0.87492797       0.62421357 </v>
   <v>       0.12507203       0.12507203       0.37578643 </v>
   <v>       0.62455273       0.12469540       0.37544727 </v>
   <v>       0.12469540       0.62455273       0.37544727 </v>
   <v>       0.62508239       0.62508239       0.37491761 </v>
   <v>       0.12960836       0.12960836       0.87039164 </v>
   <v>       0.62421357       0.12507203       0.87492797 </v>
   <v>       0.12507203       0.62421357       0.87492797 </v>
   <v>       0.62455273       0.62455273       0.87530460 </v>
   <v>       0.37544727       0.12469540       0.37544727 </v>
   <v>       0.87492797       0.12507203       0.37578643 </v>
   <v>       0.37491761       0.62508239       0.37491761 </v>
   <v>       0.87530460       0.62455273       0.37544727 </v>
   <v>       0.37578643       0.12507203       0.87492797 </v>
   <v>       0.87039164       0.12960836       0.87039164 </v>
   <v>       0.37544727       0.62455273       0.87530460 </v>
   <v>       0.87492797       0.62421357       0.87492797 </v>
   <v>       0.12469540       0.37544727       0.37544727 </v>
   <v>       0.62508239       0.37491761       0.37491761 </v>
   <v>       0.12507203       0.87492797       0.37578643 </v>
   <v>       0.62455273       0.87530460       0.37544727 </v>
   <v>       0.12507203       0.37578643       0.87492797 </v>
   <v>       0.62455273       0.37544727       0.87530460 </v>
   <v>       0.12960836       0.87039164       0.87039164 </v>
   <v>       0.62421357       0.87492797       0.87492797 </v>
   <v>       0.37491761       0.37491761       0.37491761 </v>
   <v>       0.87530460       0.37544727       0.37544727 </v>
   <v>       0.37544727       0.87530460       0.37544727 </v>
   <v>       0.87492797       0.87492797       0.37578643 </v>
   <v>       0.37544727       0.37544727       0.87530460 </v>
   <v>       0.87492797       0.37578643       0.87492797 </v>
   <v>       0.37578643       0.87492797       0.87492797 </v>
   <v>       0.87039164       0.87039164       0.87039164 </v>
  </varray>
 </structure>
 <calculation>
  <scstep>
   <time name="dav">   13.34   13.37</time>
   <time name="total">   14.13   14.17</time>
   <energy>
    <i name="alphaZ">    214.09658884 </i>
    <i name="ewald">  -5218.81715198 </i>
    <i name="hartreedc">   -333.04169182 </i>
    <i name="XCdc">  -3539.85006645 </i>
    <i name="pawpsdc">   7100.88161447 </i>
    <i name="pawaedc">  -3112.42095010 </i>
    <i name="eentropy">     -0.00000000 </i>
    <i name="bandstr">    447.64804161 </i>
    <i name="atom">   4763.39200965 </i>
    <i name="e_fr_energy">    321.88839421 </i>
    <i name="e_wo_entrp">    321.88839421 </i>
    <i name="e_0_energy">    321.88839421 </i>
   </energy>
  </scstep>
  <scstep>
   <time name="dav">   15.44   15.47</time>
   <time name="total">   15.44   15.47</time>
   <energy>
    <i name="e_fr_energy">   -253.38340036 </i>
    <i name="e_wo_entrp">   -253.38340036 </i>
    <i name="e_0_energy">   -253.38340036 </i>
   </energy>
  </scstep>
  <scstep>
   <time name="dav">   15.48   15.51</time>
   <time name="total">   15.48   15.51</time>
   <energy>
    <i name="e_fr_energy">   -296.45493414 </i>
    <i name="e_wo_entrp">   -296.45493414 </i>
    <i name="e_0_energy">   -296.45493414 </i>
   </energy>
  </scstep>
  <scstep>
   <time name="dav">   15.25   15.28</time>
   <time name="total">   15.25   15.28</time>
   <energy>
    <i name="e_fr_energy">   -297.34085632 </i>
    <i name="e_wo_entrp">   -297.34085632 </i>
    <i name="e_0_energy">   -297.34085632 </i>
   </energy>
  </scstep>
  <scstep>
   <time name="dav">   15.48   15.51</time>
   <time name="total">   15.89   15.92</time>
   <energy>
    <i name="e_fr_energy">   -297.36468906 </i>
    <i name="e_wo_entrp">   -297.36468906 </i>
    <i name="e_0_energy">   -297.36468906 </i>
   </energy>
  </scstep>
  <scstep>
   <time name="dav">   13.40   13.43</time>
   <time name="total">   14.59   14.95</time>
   <energy>
    <i name="e_fr_energy">   -280.23976846 </i>
    <i name="e_wo_entrp">   -280.23976846 </i>
    <i name="e_0_energy">   -280.23976846 </i>
   </energy>
  </scstep>
  <scstep>
   <time name="dav">   14.22   14.25</time>
   <time name="total">   15.42   15.45</time>
   <energy>
    <i name="e_fr_energy">   -277.76420391 </i>
    <i name="e_wo_entrp">   -277.76420385 </i>
    <i name="e_0_energy">   -277.76420388 </i>
   </energy>
  </scstep>
  <scstep>
   <time name="dav">   14.10   14.12</time>
   <time name="total">   15.28   15.32</time>
   <energy>
    <i name="e_fr_energy">   -277.76832354 </i>
    <i name="e_wo_entrp">   -277.76832354 </i>
    <i name="e_0_energy">   -277.76832354 </i>
   </energy>
  </scstep>
  <scstep>
   <time name="dav">   14.85   14.88</time>
   <time name="total">   16.05   16.07</time>
   <energy>
    <i name="e_fr_energy">   -277.76497576 </i>
    <i name="e_wo_entrp">   -277.76497576 </i>
    <i name="e_0_energy">   -277.76497576 </i>
   </energy>
  </scstep>
  <scstep>
   <time name="dav">   14.41   14.44</time>
   <time name="total">   15.60   15.64</time>
   <energy>
    <i name="e_fr_energy">   -277.76818540 </i>
    <i name="e_wo_entrp">   -277.76818540 </i>
    <i name="e_0_energy">   -277.76818540 </i>
   </energy>
  </scstep>
  <scstep>
   <time name="dav">   14.65   14.68</time>
   <time name="total">   15.84   15.87</time>
   <energy>
    <i name="e_fr_energy">   -277.76864067 </i>
    <i name="e_wo_entrp">   -277.76864067 </i>
    <i name="e_0_energy">   -277.76864067 </i>
   </energy>
  </scstep>
  <scstep>
   <time name="dav">   15.79   15.82</time>
   <time name="total">   16.97   17.00</time>
   <energy>
    <i name="e_fr_energy">   -277.76854350 </i>
    <i name="e_wo_entrp">   -277.76854350 </i>
    <i name="e_0_energy">   -277.76854350 </i>
   </energy>
  </scstep>
  <scstep>
   <time name="dav">   15.38   15.41</time>
   <time name="total">   16.61   16.64</time>
   <energy>
    <i name="e_fr_energy">   -277.76851660 </i>
    <i name="e_wo_entrp">   -277.76851660 </i>
    <i name="e_0_energy">   -277.76851660 </i>
   </energy>
  </scstep>
  <scstep>
   <time name="dav">   14.67   14.69</time>
   <time name="total">   15.88   15.91</time>
   <energy>
    <i name="e_fr_energy">   -277.76852264 </i>
    <i name="e_wo_entrp">   -277.76852264 </i>
    <i name="e_0_energy">   -277.76852264 </i>
   </energy>
  </scstep>
  <scstep>
   <time name="dav">   14.67   14.69</time>
   <time name="total">   15.88   15.91</time>
   <energy>
    <i name="e_fr_energy">   -277.76852243 </i>
    <i name="e_wo_entrp">   -277.76852243 </i>
    <i name="e_0_energy">   -277.76852243 </i>
   </energy>
  </scstep>
  <scstep>
   <time name="dav">   15.12   15.15</time>
   <time name="total">   16.34   16.37</time>
   <energy>
    <i name="e_fr_energy">   -277.76852269 </i>
    <i name="e_wo_entrp">   -277.76852269 </i>
    <i name="e_0_energy">   -277.76852269 </i>
   </energy>
  </scstep>
  <scstep>
   <time name="dav">   14.36   14.39</time>
   <time name="total">   15.57   15.60</time>
   <energy>
    <i name="e_fr_energy">   -277.76852287 </i>
    <i name="e_wo_entrp">   -277.76852287 </i>
    <i name="e_0_energy">   -277.76852287 </i>
   </energy>
  </scstep>
  <scstep>
   <time name="dav">   13.91   13.94</time>
   <time name="total">   15.12   15.15</time>
   <energy>
    <i name="e_fr_energy">   -277.76852284 </i>
    <i name="e_wo_entrp">   -277.76852284 </i>
    <i name="e_0_energy">   -277.76852284 </i>
   </energy>
  </scstep>
  <scstep>
   <time name="dav">   10.52   10.53</time>
   <time name="total">   11.73   11.75</time>
   <energy>
    <i name="e_fr_energy">   -277.76852287 </i>
    <i name="e_wo_entrp">   -277.76852287 </i>
    <i name="e_0_energy">   -277.76852287 </i>
   </energy>
  </scstep>
  <scstep>
   <time name="dav">    9.84    9.85</time>
   <time name="total">   11.05   11.07</time>
   <energy>
    <i name="e_fr_energy">   -277.76852289 </i>
    <i name="e_wo_entrp">   -277.76852289 </i>
    <i name="e_0_energy">   -277.76852289 </i>
   </energy>
  </scstep>
  <scstep>
   <time name="dav">    9.61    9.63</time>
   <time name="total">   10.83   10.85</time>
   <energy>
    <i name="e_fr_energy">   -277.76852288 </i>
    <i name="e_wo_entrp">   -277.76852288 </i>
    <i name="e_0_energy">   -277.76852288 </i>
   </energy>
  </scstep>
  <scstep>
   <time name="dav">    9.84    9.86</time>
   <time name="total">   10.64   10.66</time>
   <energy>
    <i name="alphaZ">    214.09658884 </i>
    <i name="ewald">  -5218.81715198 </i>
    <i name="hartreedc">   -486.13949261 </i>
    <i name="XCdc">  -3511.70761131 </i>
    <i name="pawpsdc">  17714.27666266 </i>
    <i name="pawaedc"> -13730.59847509 </i>
    <i name="eentropy">     -0.00000000 </i>
    <i name="bandstr">    -22.27105303 </i>
    <i name="atom">   4763.39200965 </i>
    <i name="e_fr_energy">   -277.76852288 </i>
    <i name="e_wo_entrp">   -277.76852288 </i>
    <i name="e_0_energy">   -277.76852288 </i>
   </energy>
  </scstep>
  <structure>
   <crystal>
    <varray name="basis" >
     <v>      12.74739769       0.00000000       0.00000000 </v>
     <v>       0.00000000      12.74739769       0.00000000 </v>
     <v>       0.00000000       0.00000000      12.74739769 </v>
    </varray>
    <i name="volume">   2071.40301882 </i>
    <varray name="rec_basis" >
     <v>       0.07844738       0.00000000       0.00000000 </v>
     <v>       0.00000000       0.07844738       0.00000000 </v>
     <v>       0.00000000       0.00000000       0.07844738 </v>
    </varray>
   </crystal>
   <varray name="positions" >
    <v>       0.00000000       0.00000000       0.00000000 </v>
    <v>       0.50000000       0.00000000       0.00000000 </v>
    <v>       0.00000000       0.50000000       0.00000000 </v>
    <v>       0.50000000       0.50000000       0.00000000 </v>
    <v>       0.00000000       0.00000000       0.50000000 </v>
    <v>       0.50000000       0.00000000       0.50000000 </v>
    <v>       0.00000000       0.50000000       0.50000000 </v>
    <v>       0.50000000       0.50000000       0.50000000 </v>
    <v>       0.25195764       0.25140293       0.00055471 </v>
    <v>       0.74859707       0.25140293       0.00000000 </v>
    <v>       0.25140293       0.74859707       0.00000000 </v>
    <v>       0.74859707       0.74859707       0.00000000 </v>
    <v>       0.25012668       0.25012668       0.50000000 </v>
    <v>       0.74987332       0.25012668       0.50000000 </v>
    <v>       0.25012668       0.74987332       0.50000000 </v>
    <v>       0.74987332       0.74987332       0.50000000 </v>
    <v>       0.25140293       0.00000000       0.25140293 </v>
    <v>       0.74859707       0.00000000       0.25140293 </v>
    <v>       0.25012668       0.50000000       0.25012668 </v>
    <v>       0.74987332       0.50000000       0.25012668 </v>
    <v>       0.25140293       0.00000000       0.74859707 </v>
    <v>       0.74859707       0.00000000       0.74859707 </v>
    <v>       0.25012668       0.50000000       0.74987332 </v>
    <v>       0.74987332       0.50000000       0.74987332 </v>
    <v>       0.00000000       0.25140293       0.25140293 </v>
    <v>       0.50000000       0.25012668       0.25012668 </v>
    <v>       0.00000000       0.74859707       0.25140293 </v>
    <v>       0.50000000       0.74987332       0.25012668 </v>
    <v>       0.00000000       0.25140293       0.74859707 </v>
    <v>       0.50000000       0.25012668       0.74987332 </v>
    <v>       0.00000000       0.74859707       0.74859707 </v>
    <v>       0.50000000       0.74987332       0.74987332 </v>
    <v>       0.12960836       0.12960836       0.12960836 </v>
    <v>       0.62421357       0.12507203       0.12507203 </v>
    <v>       0.12507203       0.62421357       0.12507203 </v>
    <v>       0.62455273       0.62455273       0.12469540 </v>
    <v>       0.12507203       0.12507203       0.62421357 </v>
    <v>       0.62455273       0.12469540       0.62455273 </v>
    <v>       0.12469540       0.62455273       0.62455273 </v>
    <v>       0.62508239       0.62508239       0.62508239 </v>
    <v>       0.37578643       0.12507203       0.12507203 </v>
    <v>       0.87039164       0.12960836       0.12960836 </v>
    <v>       0.37544727       0.62455273       0.12469540 </v>
    <v>       0.87492797       0.62421357       0.12507203 </v>
    <v>       0.37544727       0.12469540       0.62455273 </v>
    <v>       0.87492797       0.12507203       0.62421357 </v>
    <v>       0.37491761       0.62508239       0.62508239 </v>
    <v>       0.87530460       0.62455273       0.62455273 </v>
    <v>       0.12507203       0.37578643       0.12507203 </v>
    <v>       0.62455273       0.37544727       0.12469540 </v>
    <v>       0.12960836       0.87039164       0.12960836 </v>
    <v>       0.62421357       0.87492797       0.12507203 </v>
    <v>       0.12469540       0.37544727       0.62455273 </v>
    <v>       0.62508239       0.37491761       0.62508239 </v>
    <v>       0.12507203       0.87492797       0.62421357 </v>
    <v>       0.62455273       0.87530460       0.62455273 </v>
    <v>       0.37544727       0.37544727       0.12469540 </v>
    <v>       0.87492797       0.37578643       0.12507203 </v>
    <v>       0.37578643       0.87492797       0.12507203 </v>
    <v>       0.87039164       0.87039164       0.12960836 </v>
    <v>       0.37491761       0.37491761       0.62508239 </v>
    <v>       0.87530460       0.37544727       0.62455273 </v>
    <v>       0.37544727       0.87530460       0.62455273 </v>
    <v>       0.87492797       0.87492797       0.62421357 </v>
    <v>       0.12507203       0.12507203       0.37578643 </v>
    <v>       0.62455273       0.12469540       0.37544727 </v>
    <v>       0.12469540       0.62455273       0.37544727 </v>
    <v>       0.62508239       0.62508239       0.37491761 </v>
    <v>       0.12960836       0.12960836       0.87039164 </v>
    <v>       0.62421357       0.12507203       0.87492797 </v>
    <v>       0.12507203       0.62421357       0.87492797 </v>
    <v>       0.62455273       0.62455273       0.87530460 </v>
    <v>       0.37544727       0.12469540       0.37544727 </v>
    <v>       0.87492797       0.12507203       0.37578643 </v>
    <v>       0.37491761       0.62508239       0.37491761 </v>
    <v>       0.87530460       0.62455273       0.37544727 </v>
    <v>       0.37578643       0.12507203       0.87492797 </v>
    <v>       0.87039164       0.12960836       0.87039164 </v>
    <v>       0.37544727       0.62455273       0.87530460 </v>
    <v>       0.87492797       0.62421357       0.87492797 </v>
    <v>       0.12469540       0.37544727       0.37544727 </v>
    <v>       0.62508239       0.37491761       0.37491761 </v>
    <v>       0.12507203       0.87492797       0.37578643 </v>
    <v>       0.62455273       0.87530460       0.37544727 </v>
    <v>       0.12507203       0.37578643       0.87492797 </v>
    <v>       0.62455273       0.37544727       0.87530460 </v>
    <v>       0.12960836       0.87039164       0.87039164 </v>
    <v>       0.62421357       0.87492797       0.87492797 </v>
    <v>       0.37491761       0.37491761       0.37491761 </v>
    <v>       0.87530460       0.37544727       0.37544727 </v>
    <v>       0.37544727       0.87530460       0.37544727 </v>
    <v>       0.87492797       0.87492797       0.37578643 </v>
    <v>       0.37544727       0.37544727       0.87530460 </v>
    <v>       0.87492797       0.37578643       0.87492797 </v>
    <v>       0.37578643       0.87492797       0.87492797 </v>
    <v>       0.87039164       0.87039164       0.87039164 </v>
   </varray>
  </structure>
  <varray name="forces" >
   <v>       0.00024312       0.00249412      -0.00166756 </v>
   <v>       0.00066524      -0.00235225      -0.00167008 </v>
   <v>       0.00056573      -0.00230524      -0.00166454 </v>
   <v>       0.00036096       0.00266962      -0.00218182 </v>
   <v>      -0.00089203       0.00034477      -0.00022291 </v>
   <v>      -0.00112624      -0.00019606      -0.00018331 </v>
   <v>      -0.00090559      -0.00011874      -0.00018420 </v>
   <v>      -0.00097890       0.00040271      -0.00021764 </v>
   <v>      -0.03354521       0.00474996      -0.04013646 </v>
   <v>      -0.00417501       0.00634226       0.00123655 </v>
   <v>       0.00736766      -0.00634256       0.00123666 </v>
   <v>      -0.00152882      -0.00643557       0.00256081 </v>
   <v>      -0.00243024      -0.00349541       0.00243181 </v>
   <v>       0.00805686      -0.00355110       0.00489300 </v>
   <v>      -0.00129339       0.00331872       0.00489232 </v>
   <v>       0.00559505       0.00341304       0.00235882 </v>
   <v>       0.00484711      -0.00243213       0.00678262 </v>
   <v>      -0.00628867      -0.00036924       0.00524367 </v>
   <v>      -0.00505238       0.00243470      -0.00294692 </v>
   <v>       0.00342470       0.00027477      -0.00456230 </v>
   <v>       0.00498115       0.00230786      -0.00592766 </v>
   <v>      -0.00636386       0.00029824      -0.00751436 </v>
   <v>      -0.00492991      -0.00249605       0.00406971 </v>
   <v>       0.00339202      -0.00030600       0.00238593 </v>
   <v>      -0.00193773       0.00629580       0.00444780 </v>
   <v>       0.00286239      -0.00353290      -0.00047517 </v>
   <v>      -0.00146985      -0.00634079       0.00488810 </v>
   <v>      -0.00083445       0.00344661      -0.00425972 </v>
   <v>       0.00279446       0.00642470      -0.00359713 </v>
   <v>      -0.00207608      -0.00341505       0.00160959 </v>
   <v>      -0.00080030      -0.00641475      -0.00715454 </v>
   <v>      -0.00141392       0.00341457       0.00208480 </v>
   <v>      -0.01290123      -0.01481120      -0.01309968 </v>
   <v>      -0.00225936       0.00077892       0.00099519 </v>
   <v>       0.00129238      -0.00157998       0.00127612 </v>
   <v>      -0.00070057      -0.00058961      -0.00052556 </v>
   <v>       0.00103616       0.00031501      -0.00219341 </v>
   <v>      -0.00057207      -0.00038131      -0.00066959 </v>
   <v>      -0.00066416      -0.00026521      -0.00082110 </v>
   <v>      -0.00102139      -0.00088129      -0.00104176 </v>
   <v>       0.00831823      -0.00433194       0.00740249 </v>
   <v>       0.01458004      -0.01455699      -0.01452241 </v>
   <v>       0.00055574      -0.00074026      -0.00024439 </v>
   <v>      -0.00111394      -0.00117239       0.00113725 </v>
   <v>       0.00077640      -0.00002365      -0.00078803 </v>
   <v>      -0.00129903      -0.00028614      -0.00226315 </v>
   <v>       0.00156671      -0.00042941      -0.00143677 </v>
   <v>       0.00019172      -0.00042497      -0.00060466 </v>
   <v>       0.00260055       0.00141860       0.00252255 </v>
   <v>      -0.00105037       0.00015170       0.00019754 </v>
   <v>      -0.01411190       0.01479846      -0.01413903 </v>
   <v>      -0.00188930      -0.00033051       0.00028987 </v>
   <v>       0.00009102       0.00067292      -0.00115511 </v>
   <v>      -0.00100290       0.00092376      -0.00105268 </v>
   <v>       0.00031187      -0.00071571      -0.00182539 </v>
   <v>      -0.00060771       0.00033406      -0.00062039 </v>
   <v>       0.00835885       0.00632453       0.00754778 </v>
   <v>      -0.00085259       0.00119873       0.00090989 </v>
   <v>       0.00167096      -0.00023663       0.00065567 </v>
   <v>       0.01434667       0.01453750      -0.01425519 </v>
   <v>       0.00125254       0.00047096      -0.00122961 </v>
   <v>      -0.00035837       0.00128602      -0.00114596 </v>
   <v>       0.00106705      -0.00002006      -0.00096609 </v>
   <v>      -0.00073495      -0.00057761      -0.00170574 </v>
   <v>       0.00085174       0.00012867       0.00125975 </v>
   <v>      -0.00123986       0.00060531      -0.00020330 </v>
   <v>       0.00031295      -0.00092860      -0.00005249 </v>
   <v>      -0.00106773      -0.00092671       0.00074999 </v>
   <v>      -0.00754476      -0.00948246       0.02269714 </v>
   <v>      -0.00188889       0.00009886      -0.00011113 </v>
   <v>       0.00061285      -0.00120863      -0.00039400 </v>
   <v>      -0.00106018      -0.00094463       0.00095959 </v>
   <v>       0.00097205      -0.00009070      -0.00020739 </v>
   <v>      -0.00063945       0.00052172       0.00147669 </v>
   <v>       0.00065280      -0.00106448       0.00057711 </v>
   <v>       0.00018442      -0.00048517       0.00031775 </v>
   <v>       0.00353493       0.00047452       0.00148150 </v>
   <v>       0.01422675      -0.01517289       0.01532221 </v>
   <v>       0.00130863      -0.00050152       0.00116282 </v>
   <v>      -0.00083477      -0.00142641      -0.00075038 </v>
   <v>       0.00002619       0.00086508       0.00016340 </v>
   <v>      -0.00163583       0.00000237       0.00019150 </v>
   <v>       0.00112643      -0.00005874       0.00103727 </v>
   <v>      -0.00066465       0.00032343       0.00033567 </v>
   <v>       0.00705582      -0.00301921       0.00603893 </v>
   <v>      -0.00080723       0.00090324       0.00072414 </v>
   <v>      -0.01472674       0.01444071       0.01494208 </v>
   <v>      -0.00214122      -0.00005362       0.00009501 </v>
   <v>       0.00140563       0.00062093       0.00021558 </v>
   <v>       0.00019394       0.00045496       0.00030247 </v>
   <v>       0.00022709       0.00053615       0.00012287 </v>
   <v>      -0.00065210      -0.00049409       0.00145770 </v>
   <v>       0.00250699       0.00044501       0.00221328 </v>
   <v>      -0.00116805       0.00180587      -0.00006758 </v>
   <v>       0.00227896      -0.00055176       0.00018838 </v>
   <v>       0.01460241       0.01479791       0.01456892 </v>
  </varray>
  <varray name="stress" >
   <v>      -1.01823405       0.00066600       0.00112657 </v>
   <v>       0.00066578      -1.01705423       0.00027633 </v>
   <v>       0.00112632       0.00027634      -1.01889631 </v>
  </varray>
  <energy>
   <i name="e_fr_energy">   -277.76852288 </i>
   <i name="e_wo_entrp">   -277.76852288 </i>
   <i name="e_0_energy">     -0.00000000 </i>
  </energy>
  <time name="totalsc">  359.23  360.24</time>
  <eigenvalues>
   <array>
    <dimension dim="1">band</dimension>
    <dimension dim="2">kpoint</dimension>
    <dimension dim="3">spin</dimension>
    <field>eigene</field>
    <field>occ</field>
    <set>
     <set comment="spin 1">
      <set comment="kpoint 1">
       <r>   -5.4896    1.0000 </r>
       <r>   -4.7781    1.0000 </r>
       <r>   -4.7780    1.0000 </r>
       <r>   -4.7690    1.0000 </r>
       <r>   -4.7689    1.0000 </r>
       <r>   -4.7688    1.0000 </r>
       <r>   -4.7408    1.0000 </r>
       <r>   -4.2067    1.0000 </r>
       <r>   -4.2061    1.0000 </r>
       <r>   -4.2008    1.0000 </r>
       <r>   -4.2005    1.0000 </r>
       <r>   -4.2000    1.0000 </r>
       <r>   -4.1957    1.0000 </r>
       <r>   -4.1952    1.0000 </r>
       <r>   -4.1946    1.0000 </r>
       <r>   -4.1857    1.0000 </r>
       <r>   -4.1854    1.0000 </r>
       <r>   -4.1848    1.0000 </r>
       <r>   -4.1417    1.0000 </r>
       <r>   -4.0661    1.0000 </r>
       <r>   -4.0661    1.0000 </r>
       <r>   -4.0660    1.0000 </r>
       <r>   -4.0498    1.0000 </r>
       <r>   -3.5079    1.0000 </r>
       <r>   -3.5079    1.0000 </r>
       <r>   -3.4978    1.0000 </r>
       <r>   -3.4675    1.0000 </r>
       <r>   -3.4672    1.0000 </r>
       <r>   -3.4604    1.0000 </r>
       <r>   -3.4601    1.0000 </r>
       <r>   -3.4598    1.0000 </r>
       <r>   -3.3913    1.0000 </r>
       <r>   -1.1929    1.0000 </r>
       <r>   -1.1580    1.0000 </r>
       <r>   -1.1580    1.0000 </r>
       <r>   -1.1580    1.0000 </r>
       <r>   -0.8439    1.0000 </r>
       <r>   -0.8439    1.0000 </r>
       <r>   -0.8439    1.0000 </r>
       <r>   -0.0457    1.0000 </r>
       <r>   -0.0449    1.0000 </r>
       <r>   -0.0444    1.0000 </r>
       <r>   -0.0342    1.0000 </r>
       <r>   -0.0339    1.0000 </r>
       <r>   -0.0337    1.0000 </r>
       <r>   -0.0259    1.0000 </r>
       <r>   -0.0257    1.0000 </r>
       <r>   -0.0256    1.0000 </r>
       <r>   -0.0005    1.0000 </r>
       <r>   -0.0003    1.0000 </r>
       <r>    0.0001    1.0000 </r>
       <r>    0.0105    1.0000 </r>
       <r>    0.0107    1.0000 </r>
       <r>    0.0112    1.0000 </r>
       <r>    0.0113    1.0000 </r>
       <r>    0.0119    1.0000 </r>
       <r>    0.0142    1.0000 </r>
       <r>    0.0144    1.0000 </r>
       <r>    0.0150    1.0000 </r>
       <r>    0.0534    1.0000 </r>
       <r>    0.0538    1.0000 </r>
       <r>    0.0540    1.0000 </r>
       <r>    0.0684    1.0000 </r>
       <r>    0.7621    1.0000 </r>
       <r>    0.7627    1.0000 </r>
       <r>    0.7694    1.0000 </r>
       <r>    0.7834    1.0000 </r>
       <r>    0.7838    1.0000 </r>
       <r>    0.7841    1.0000 </r>
       <r>    0.8013    1.0000 </r>
       <r>    0.8017    1.0000 </r>
       <r>    0.8017    1.0000 </r>
       <r>    0.8019    1.0000 </r>
       <r>    0.8020    1.0000 </r>
       <r>    0.8024    1.0000 </r>
       <r>    0.9184    1.0000 </r>
       <r>    0.9352    1.0000 </r>
       <r>    0.9355    1.0000 </r>
       <r>    0.9359    1.0000 </r>
       <r>    0.9577    1.0000 </r>
       <r>    0.9581    1.0000 </r>
       <r>    1.1731    1.0000 </r>
       <r>    1.1736    1.0000 </r>
       <r>    1.1738    1.0000 </r>
       <r>    1.1739    1.0000 </r>
       <r>    1.1747    1.0000 </r>
       <r>    1.2240    1.0000 </r>
       <r>    1.6500    1.0000 </r>
       <r>    1.6500    1.0000 </r>
       <r>    1.6500    1.0000 </r>
       <r>    1.6527    1.0000 </r>
       <r>    1.6527    1.0000 </r>
       <r>    1.6527    1.0000 </r>
       <r>    2.3236    1.0000 </r>
       <r>    2.3239    1.0000 </r>
       <r>    2.3244    1.0000 </r>
       <r>    2.3308    1.0000 </r>
       <r>    2.3310    1.0000 </r>
       <r>    2.3312    1.0000 </r>
       <r>    2.3313    1.0000 </r>
       <r>    2.3317    1.0000 </r>
       <r>    2.3319    1.0000 </r>
       <r>    2.3807    1.0000 </r>
       <r>    2.3812    1.0000 </r>
       <r>    2.3815    1.0000 </r>
       <r>    2.7665    1.0000 </r>
       <r>    2.7669    1.0000 </r>
       <r>    2.7671    1.0000 </r>
       <r>    2.7792    1.0000 </r>
       <r>    2.7794    1.0000 </r>
       <r>    2.7797    1.0000 </r>
       <r>    2.7879    1.0000 </r>
       <r>    2.7951    1.0000 </r>
       <r>    2.7952    1.0000 </r>
       <r>    2.8222    1.0000 </r>
       <r>    2.8225    1.0000 </r>
       <r>    2.8226    1.0000 </r>
       <r>    2.8683    1.0000 </r>
       <r>    2.8684    1.0000 </r>
       <r>    2.8948    1.0000 </r>
       <r>    2.8949    1.0000 </r>
       <r>    2.8949    1.0000 </r>
       <r>    2.9787    1.0000 </r>
       <r>    2.9789    1.0000 </r>
       <r>    2.9791    1.0000 </r>
       <r>    3.6210    1.0000 </r>
       <r>    3.6211    1.0000 </r>
       <r>    3.6212    1.0000 </r>
       <r>    3.7507    0.0000 </r>
       <r>    3.7931    0.0000 </r>
       <r>    3.7931    0.0000 </r>
       <r>    3.9521    0.0000 </r>
       <r>    3.9522    0.0000 </r>
       <r>    3.9522    0.0000 </r>
       <r>    4.7270    0.0000 </r>
       <r>    4.7270    0.0000 </r>
       <r>    4.7591    0.0000 </r>
       <r>    4.7591    0.0000 </r>
       <r>    4.7592    0.0000 </r>
       <r>    4.7621    0.0000 </r>
       <r>    4.8108    0.0000 </r>
       <r>    4.8109    0.0000 </r>
       <r>    4.8109    0.0000 </r>
       <r>    4.8422    0.0000 </r>
       <r>    5.3095    0.0000 </r>
       <r>    5.3098    0.0000 </r>
       <r>    5.3099    0.0000 </r>
       <r>    5.3201    0.0000 </r>
       <r>    5.3202    0.0000 </r>
       <r>    5.3251    0.0000 </r>
       <r>    5.3252    0.0000 </r>
       <r>    5.3253    0.0000 </r>
       <r>    5.3336    0.0000 </r>
       <r>    5.3649    0.0000 </r>
       <r>    5.3649    0.0000 </r>
       <r>    5.3650    0.0000 </r>
       <r>    5.3732    0.0000 </r>
       <r>    5.3732    0.0000 </r>
       <r>    5.3734    0.0000 </r>
       <r>    5.3740    0.0000 </r>
       <r>    5.4338    0.0000 </r>
       <r>    5.4339    0.0000 </r>
       <r>    5.5273    0.0000 </r>
       <r>    6.0784    0.0000 </r>
       <r>    6.0784    0.0000 </r>
       <r>    6.0784    0.0000 </r>
       <r>    6.1001    0.0000 </r>
       <r>    6.1002    0.0000 </r>
       <r>    6.1002    0.0000 </r>
       <r>    6.1460    0.0000 </r>
       <r>    6.1463    0.0000 </r>
       <r>    6.1489    0.0000 </r>
       <r>    6.1490    0.0000 </r>
       <r>    6.1492    0.0000 </r>
       <r>    6.2468    0.0000 </r>
       <r>    6.2498    0.0000 </r>
       <r>    6.2573    0.0000 </r>
       <r>    6.2740    0.0000 </r>
      </set>
     </set>
    </set>
   </array>
  </eigenvalues>
  <separator name="orbital magnetization" >
   <v name="MAGDIPOLOUT">      0.00000000      0.00000000      0.00000000</v>
  </separator>
  <dos>
   <i name="efermi">      3.68110950 </i>
   <total>
    <array>
     <dimension dim="1">gridpoints</dimension>
     <dimension dim="2">spin</dimension>
     <field>energy</field>
     <field>total</field>
     <field>integrated</field>
     <set>
      <set comment="spin 1">
       <r>    -6.0778     0.0000     0.0000 </r>
       <r>    -6.0346     0.0000     0.0000 </r>
       <r>    -5.9915     0.0000     0.0000 </r>
       <r>    -5.9484     0.0000     0.0000 </r>
       <r>    -5.9052     0.0000     0.0000 </r>
       <r>    -5.8621     0.0000     0.0000 </r>
       <r>    -5.8190     0.0000     0.0000 </r>
       <r>    -5.7758     0.0000     0.0000 </r>
       <r>    -5.7327     0.0000     0.0000 </r>
       <r>    -5.6896     0.0000     0.0000 </r>
       <r>    -5.6464     0.0000     0.0000 </r>
       <r>    -5.6033     0.0000     0.0000 </r>
       <r>    -5.5602     0.0000     0.0000 </r>
       <r>    -5.5170     0.0024     0.0001 </r>
       <r>    -5.4739    45.7503     1.9735 </r>
       <r>    -5.4308     0.6154     2.0000 </r>
       <r>    -5.3876     0.0000     2.0000 </r>
       <r>    -5.3445     0.0000     2.0000 </r>
       <r>    -5.3014     0.0000     2.0000 </r>
       <r>    -5.2582     0.0000     2.0000 </r>
       <r>    -5.2151     0.0000     2.0000 </r>
       <r>    -5.1720     0.0000     2.0000 </r>
       <r>    -5.1288     0.0000     2.0000 </r>
       <r>    -5.0857     0.0000     2.0000 </r>
       <r>    -5.0426     0.0000     2.0000 </r>
       <r>    -4.9994     0.0000     2.0000 </r>
       <r>    -4.9563     0.0000     2.0000 </r>
       <r>    -4.9132     0.0000     2.0000 </r>
       <r>    -4.8700     0.0000     2.0000 </r>
       <r>    -4.8269     0.0000     2.0000 </r>
       <r>    -4.7838    21.9157     2.9453 </r>
       <r>    -4.7406   233.5856    13.0206 </r>
       <r>    -4.6975    22.7074    14.0000 </r>
       <r>    -4.6544     0.0000    14.0000 </r>
       <r>    -4.6112     0.0000    14.0000 </r>
       <r>    -4.5681     0.0000    14.0000 </r>
       <r>    -4.5250     0.0000    14.0000 </r>
       <r>    -4.4818     0.0000    14.0000 </r>
       <r>    -4.4387     0.0000    14.0000 </r>
       <r>    -4.3956     0.0000    14.0000 </r>
       <r>    -4.3524     0.0000    14.0000 </r>
       <r>    -4.3093     0.0000    14.0000 </r>
       <r>    -4.2662     0.0000    14.0000 </r>
       <r>    -4.2230     0.9844    14.0425 </r>
       <r>    -4.1799   475.7102    34.5613 </r>
       <r>    -4.1368    68.5629    37.5186 </r>
       <r>    -4.0936    11.1667    38.0003 </r>
       <r>    -4.0505   158.5656    44.8397 </r>
       <r>    -4.0074    26.9001    46.0000 </r>
       <r>    -3.9642     0.0000    46.0000 </r>
       <r>    -3.9211     0.0000    46.0000 </r>
       <r>    -3.8780     0.0000    46.0000 </r>
       <r>    -3.8348     0.0000    46.0000 </r>
       <r>    -3.7917     0.0000    46.0000 </r>
       <r>    -3.7486     0.0000    46.0000 </r>
       <r>    -3.7054     0.0000    46.0000 </r>
       <r>    -3.6623     0.0000    46.0000 </r>
       <r>    -3.6192     0.0000    46.0000 </r>
       <r>    -3.5760     0.0000    46.0000 </r>
       <r>    -3.5329     0.0188    46.0008 </r>
       <r>    -3.4898   132.7576    51.7271 </r>
       <r>    -3.4466   234.0720    61.8233 </r>
       <r>    -3.4035     6.0434    62.0840 </r>
       <r>    -3.3604    44.4210    64.0000 </r>
       <r>    -3.3172     0.0003    64.0000 </r>
       <r>    -3.2741     0.0000    64.0000 </r>
       <r>    -3.2310     0.0000    64.0000 </r>
       <r>    -3.1878     0.0000    64.0000 </r>
       <r>    -3.1447     0.0000    64.0000 </r>
       <r>    -3.1016     0.0000    64.0000 </r>
       <r>    -3.0584     0.0000    64.0000 </r>
       <r>    -3.0153     0.0000    64.0000 </r>
       <r>    -2.9722     0.0000    64.0000 </r>
       <r>    -2.9290     0.0000    64.0000 </r>
       <r>    -2.8859     0.0000    64.0000 </r>
       <r>    -2.8428     0.0000    64.0000 </r>
       <r>    -2.7996     0.0000    64.0000 </r>
       <r>    -2.7565     0.0000    64.0000 </r>
       <r>    -2.7134     0.0000    64.0000 </r>
       <r>    -2.6702     0.0000    64.0000 </r>
       <r>    -2.6271     0.0000    64.0000 </r>
       <r>    -2.5840     0.0000    64.0000 </r>
       <r>    -2.5408     0.0000    64.0000 </r>
       <r>    -2.4977     0.0000    64.0000 </r>
       <r>    -2.4546     0.0000    64.0000 </r>
       <r>    -2.4114     0.0000    64.0000 </r>
       <r>    -2.3683     0.0000    64.0000 </r>
       <r>    -2.3252     0.0000    64.0000 </r>
       <r>    -2.2820     0.0000    64.0000 </r>
       <r>    -2.2389     0.0000    64.0000 </r>
       <r>    -2.1958     0.0000    64.0000 </r>
       <r>    -2.1526     0.0000    64.0000 </r>
       <r>    -2.1095     0.0000    64.0000 </r>
       <r>    -2.0664     0.0000    64.0000 </r>
       <r>    -2.0232     0.0000    64.0000 </r>
       <r>    -1.9801     0.0000    64.0000 </r>
       <r>    -1.9370     0.0000    64.0000 </r>
       <r>    -1.8938     0.0000    64.0000 </r>
       <r>    -1.8507     0.0000    64.0000 </r>
       <r>    -1.8076     0.0000    64.0000 </r>
       <r>    -1.7644     0.0000    64.0000 </r>
       <r>    -1.7213     0.0000    64.0000 </r>
       <r>    -1.6782     0.0000    64.0000 </r>
       <r>    -1.6350     0.0000    64.0000 </r>
       <r>    -1.5919     0.0000    64.0000 </r>
       <r>    -1.5488     0.0000    64.0000 </r>
       <r>    -1.5056     0.0000    64.0000 </r>
       <r>    -1.4625     0.0000    64.0000 </r>
       <r>    -1.4194     0.0000    64.0000 </r>
       <r>    -1.3762     0.0000    64.0000 </r>
       <r>    -1.3331     0.0000    64.0000 </r>
       <r>    -1.2900     0.0000    64.0000 </r>
       <r>    -1.2468     0.0000    64.0000 </r>
       <r>    -1.2037     2.9281    64.1263 </r>
       <r>    -1.1606    93.0869    68.1414 </r>
       <r>    -1.1174    89.4575    72.0000 </r>
       <r>    -1.0743     0.0000    72.0000 </r>
       <r>    -1.0312     0.0000    72.0000 </r>
       <r>    -0.9880     0.0000    72.0000 </r>
       <r>    -0.9449     0.0000    72.0000 </r>
       <r>    -0.9018     0.0000    72.0000 </r>
       <r>    -0.8586     2.5906    72.1117 </r>
       <r>    -0.8155   136.5096    77.9998 </r>
       <r>    -0.7724     0.0041    78.0000 </r>
       <r>    -0.7292     0.0000    78.0000 </r>
       <r>    -0.6861     0.0000    78.0000 </r>
       <r>    -0.6430     0.0000    78.0000 </r>
       <r>    -0.5998     0.0000    78.0000 </r>
       <r>    -0.5567     0.0000    78.0000 </r>
       <r>    -0.5136     0.0000    78.0000 </r>
       <r>    -0.4705     0.0000    78.0000 </r>
       <r>    -0.4273     0.0000    78.0000 </r>
       <r>    -0.3842     0.0000    78.0000 </r>
       <r>    -0.3411     0.0000    78.0000 </r>
       <r>    -0.2979     0.0000    78.0000 </r>
       <r>    -0.2548     0.0000    78.0000 </r>
       <r>    -0.2117     0.0000    78.0000 </r>
       <r>    -0.1685     0.0000    78.0000 </r>
       <r>    -0.1254     0.0000    78.0000 </r>
       <r>    -0.0823     0.0000    78.0000 </r>
       <r>    -0.0391   147.0103    84.3410 </r>
       <r>     0.0040   417.3100   102.3409 </r>
       <r>     0.0471   387.5470   119.0570 </r>
       <r>     0.0903   160.9216   125.9980 </r>
       <r>     0.1334     0.0458   126.0000 </r>
       <r>     0.1765     0.0000   126.0000 </r>
       <r>     0.2197     0.0000   126.0000 </r>
       <r>     0.2628     0.0000   126.0000 </r>
       <r>     0.3059     0.0000   126.0000 </r>
       <r>     0.3491     0.0000   126.0000 </r>
       <r>     0.3922     0.0000   126.0000 </r>
       <r>     0.4353     0.0000   126.0000 </r>
       <r>     0.4785     0.0000   126.0000 </r>
       <r>     0.5216     0.0000   126.0000 </r>
       <r>     0.5647     0.0000   126.0000 </r>
       <r>     0.6079     0.0000   126.0000 </r>
       <r>     0.6510     0.0000   126.0000 </r>
       <r>     0.6941     0.0000   126.0000 </r>
       <r>     0.7373     0.0176   126.0008 </r>
       <r>     0.7804   180.3385   133.7793 </r>
       <r>     0.8235   375.7614   149.9871 </r>
       <r>     0.8667     0.2998   150.0000 </r>
       <r>     0.9098     5.1626   150.2227 </r>
       <r>     0.9529   201.7153   158.9233 </r>
       <r>     0.9961    71.3308   162.0000 </r>
       <r>     1.0392     0.0000   162.0000 </r>
       <r>     1.0823     0.0000   162.0000 </r>
       <r>     1.1255     0.0000   162.0000 </r>
       <r>     1.1686    53.5621   164.3103 </r>
       <r>     1.2117   180.2050   172.0831 </r>
       <r>     1.2549    44.4413   174.0000 </r>
       <r>     1.2980     0.0003   174.0000 </r>
       <r>     1.3411     0.0000   174.0000 </r>
       <r>     1.3843     0.0000   174.0000 </r>
       <r>     1.4274     0.0000   174.0000 </r>
       <r>     1.4705     0.0000   174.0000 </r>
       <r>     1.5137     0.0000   174.0000 </r>
       <r>     1.5568     0.0000   174.0000 </r>
       <r>     1.5999     0.0000   174.0000 </r>
       <r>     1.6431    34.7712   175.4998 </r>
       <r>     1.6862   243.4373   186.0000 </r>
       <r>     1.7293     0.0002   186.0000 </r>
       <r>     1.7725     0.0000   186.0000 </r>
       <r>     1.8156     0.0000   186.0000 </r>
       <r>     1.8587     0.0000   186.0000 </r>
       <r>     1.9019     0.0000   186.0000 </r>
       <r>     1.9450     0.0000   186.0000 </r>
       <r>     1.9881     0.0000   186.0000 </r>
       <r>     2.0313     0.0000   186.0000 </r>
       <r>     2.0744     0.0000   186.0000 </r>
       <r>     2.1175     0.0000   186.0000 </r>
       <r>     2.1607     0.0000   186.0000 </r>
       <r>     2.2038     0.0000   186.0000 </r>
       <r>     2.2469     0.0000   186.0000 </r>
       <r>     2.2901     0.0001   186.0000 </r>
       <r>     2.3332   293.9341   198.6783 </r>
       <r>     2.3763   157.9999   205.4933 </r>
       <r>     2.4195   104.4832   210.0000 </r>
       <r>     2.4626     0.0000   210.0000 </r>
       <r>     2.5057     0.0000   210.0000 </r>
       <r>     2.5489     0.0000   210.0000 </r>
       <r>     2.5920     0.0000   210.0000 </r>
       <r>     2.6351     0.0000   210.0000 </r>
       <r>     2.6783     0.0000   210.0000 </r>
       <r>     2.7214     0.0000   210.0000 </r>
       <r>     2.7645    54.1997   212.3378 </r>
       <r>     2.8077   361.9785   227.9511 </r>
       <r>     2.8508   140.8424   234.0260 </r>
       <r>     2.8939   154.3876   240.6852 </r>
       <r>     2.9371    76.8497   244.0000 </r>
       <r>     2.9802    79.7446   247.4396 </r>
       <r>     3.0233    59.3598   250.0000 </r>
       <r>     3.0665     0.0000   250.0000 </r>
       <r>     3.1096     0.0000   250.0000 </r>
       <r>     3.1527     0.0000   250.0000 </r>
       <r>     3.1959     0.0000   250.0000 </r>
       <r>     3.2390     0.0000   250.0000 </r>
       <r>     3.2821     0.0000   250.0000 </r>
       <r>     3.3253     0.0000   250.0000 </r>
       <r>     3.3684     0.0000   250.0000 </r>
       <r>     3.4115     0.0000   250.0000 </r>
       <r>     3.4547     0.0000   250.0000 </r>
       <r>     3.4978     0.0000   250.0000 </r>
       <r>     3.5409     0.0000   250.0000 </r>
       <r>     3.5841     0.0000   250.0000 </r>
       <r>     3.6272   112.0645   254.8337 </r>
       <r>     3.6703    27.0398   256.0000 </r>
       <r>     3.7135     0.0000   256.0000 </r>
       <r>     3.7566    36.9904   257.5955 </r>
       <r>     3.7997    85.9224   261.3016 </r>
       <r>     3.8429    16.1916   262.0000 </r>
       <r>     3.8860     0.0000   262.0000 </r>
       <r>     3.9291     0.0785   262.0034 </r>
       <r>     3.9723   138.7155   267.9866 </r>
       <r>     4.0154     0.3104   268.0000 </r>
       <r>     4.0585     0.0000   268.0000 </r>
       <r>     4.1017     0.0000   268.0000 </r>
       <r>     4.1448     0.0000   268.0000 </r>
       <r>     4.1879     0.0000   268.0000 </r>
       <r>     4.2311     0.0000   268.0000 </r>
       <r>     4.2742     0.0000   268.0000 </r>
       <r>     4.3173     0.0000   268.0000 </r>
       <r>     4.3605     0.0000   268.0000 </r>
       <r>     4.4036     0.0000   268.0000 </r>
       <r>     4.4467     0.0000   268.0000 </r>
       <r>     4.4899     0.0000   268.0000 </r>
       <r>     4.5330     0.0000   268.0000 </r>
       <r>     4.5761     0.0000   268.0000 </r>
       <r>     4.6193     0.0000   268.0000 </r>
       <r>     4.6624     0.0000   268.0000 </r>
       <r>     4.7055     0.1098   268.0047 </r>
       <r>     4.7487   103.4782   272.4681 </r>
       <r>     4.7918   175.1091   280.0211 </r>
       <r>     4.8349   145.5849   286.3006 </r>
       <r>     4.8781    39.3992   288.0000 </r>
       <r>     4.9212     0.0000   288.0000 </r>
       <r>     4.9643     0.0000   288.0000 </r>
       <r>     5.0075     0.0000   288.0000 </r>
       <r>     5.0506     0.0000   288.0000 </r>
       <r>     5.0937     0.0000   288.0000 </r>
       <r>     5.1369     0.0000   288.0000 </r>
       <r>     5.1800     0.0000   288.0000 </r>
       <r>     5.2231     0.0000   288.0000 </r>
       <r>     5.2663     0.0000   288.0000 </r>
       <r>     5.3094    74.7397   291.2238 </r>
       <r>     5.3525   348.2435   306.2446 </r>
       <r>     5.3956   318.7455   319.9931 </r>
       <r>     5.4388    70.4697   323.0326 </r>
       <r>     5.4819    22.4276   324.0000 </r>
       <r>     5.5250    17.4363   324.7521 </r>
       <r>     5.5682    28.9318   326.0000 </r>
       <r>     5.6113     0.0000   326.0000 </r>
       <r>     5.6544     0.0000   326.0000 </r>
       <r>     5.6976     0.0000   326.0000 </r>
       <r>     5.7407     0.0000   326.0000 </r>
       <r>     5.7838     0.0000   326.0000 </r>
       <r>     5.8270     0.0000   326.0000 </r>
       <r>     5.8701     0.0000   326.0000 </r>
       <r>     5.9132     0.0000   326.0000 </r>
       <r>     5.9564     0.0000   326.0000 </r>
       <r>     5.9995     0.0000   326.0000 </r>
       <r>     6.0426     0.0000   326.0000 </r>
       <r>     6.0858   121.3804   331.2355 </r>
       <r>     6.1289   157.8272   338.0431 </r>
       <r>     6.1720   230.7508   347.9961 </r>
       <r>     6.2152     0.0910   348.0000 </r>
       <r>     6.2583   111.5385   352.8110 </r>
       <r>     6.3014    73.9313   355.9999 </r>
       <r>     6.3446     0.0024   356.0000 </r>
       <r>     6.3877     0.0000   356.0000 </r>
       <r>     6.4308     0.0000   356.0000 </r>
       <r>     6.4740     0.0000   356.0000 </r>
       <r>     6.5171     0.0000   356.0000 </r>
       <r>     6.5602     0.0000   356.0000 </r>
       <r>     6.6034     0.0000   356.0000 </r>
       <r>     6.6465     0.0000   356.0000 </r>
       <r>     6.6896     0.0000   356.0000 </r>
       <r>     6.7328     0.0000   356.0000 </r>
       <r>     6.7759     0.0000   356.0000 </r>
       <r>     6.8190     0.0000   356.0000 </r>
       <r>     6.8622     0.0000   356.0000 </r>
      </set>
     </set>
    </array>
   </total>
  </dos>
 </calculation>
 <structure name="finalpos" >
  <crystal>
   <varray name="basis" >
    <v>      12.74739769       0.00000000       0.00000000 </v>
    <v>       0.00000000      12.74739769       0.00000000 </v>
    <v>       0.00000000       0.00000000      12.74739769 </v>
   </varray>
   <i name="volume">   2071.40301882 </i>
   <varray name="rec_basis" >
    <v>       0.07844738       0.00000000       0.00000000 </v>
    <v>       0.00000000       0.07844738       0.00000000 </v>
    <v>       0.00000000       0.00000000       0.07844738 </v>
   </varray>
  </crystal>
  <varray name="positions" >
   <v>       0.00000000       0.00000000       0.00000000 </v>
   <v>       0.50000000       0.00000000       0.00000000 </v>
   <v>       0.00000000       0.50000000       0.00000000 </v>
   <v>       0.50000000       0.50000000       0.00000000 </v>
   <v>       0.00000000       0.00000000       0.50000000 </v>
   <v>       0.50000000       0.00000000       0.50000000 </v>
   <v>       0.00000000       0.50000000       0.50000000 </v>
   <v>       0.50000000       0.50000000       0.50000000 </v>
   <v>       0.25195764       0.25140293       0.00055471 </v>
   <v>       0.74859707       0.25140293       0.00000000 </v>
   <v>       0.25140293       0.74859707       0.00000000 </v>
   <v>       0.74859707       0.74859707       0.00000000 </v>
   <v>       0.25012668       0.25012668       0.50000000 </v>
   <v>       0.74987332       0.25012668       0.50000000 </v>
   <v>       0.25012668       0.74987332       0.50000000 </v>
   <v>       0.74987332       0.74987332       0.50000000 </v>
   <v>       0.25140293       0.00000000       0.25140293 </v>
   <v>       0.74859707       0.00000000       0.25140293 </v>
   <v>       0.25012668       0.50000000       0.25012668 </v>
   <v>       0.74987332       0.50000000       0.25012668 </v>
   <v>       0.25140293       0.00000000       0.74859707 </v>
   <v>       0.74859707       0.00000000       0.74859707 </v>
   <v>       0.25012668       0.50000000       0.74987332 </v>
   <v>       0.74987332       0.50000000       0.74987332 </v>
   <v>       0.00000000       0.25140293       0.25140293 </v>
   <v>       0.50000000       0.25012668       0.25012668 </v>
   <v>       0.00000000       0.74859707       0.25140293 </v>
   <v>       0.50000000       0.74987332       0.25012668 </v>
   <v>       0.00000000       0.25140293       0.74859707 </v>
   <v>       0.50000000       0.25012668       0.74987332 </v>
   <v>       0.00000000       0.74859707       0.74859707 </v>
   <v>       0.50000000       0.74987332       0.74987332 </v>
   <v>       0.12960836       0.12960836       0.12960836 </v>
   <v>       0.62421357       0.12507203       0.12507203 </v>
   <v>       0.12507203       0.62421357       0.12507203 </v>
   <v>       0.62455273       0.62455273       0.12469540 </v>
   <v>       0.12507203       0.12507203       0.62421357 </v>
   <v>       0.62455273       0.12469540       0.62455273 </v>
   <v>       0.12469540       0.62455273       0.62455273 </v>
   <v>       0.62508239       0.62508239       0.62508239 </v>
   <v>       0.37578643       0.12507203       0.12507203 </v>
   <v>       0.87039164       0.12960836       0.12960836 </v>
   <v>       0.37544727       0.62455273       0.12469540 </v>
   <v>       0.87492797       0.62421357       0.12507203 </v>
   <v>       0.37544727       0.12469540       0.62455273 </v>
   <v>       0.87492797       0.12507203       0.62421357 </v>
   <v>       0.37491761       0.62508239       0.62508239 </v>
   <v>       0.87530460       0.62455273       0.62455273 </v>
   <v>       0.12507203       0.37578643       0.12507203 </v>
   <v>       0.62455273       0.37544727       0.12469540 </v>
   <v>       0.12960836       0.87039164       0.12960836 </v>
   <v>       0.62421357       0.87492797       0.12507203 </v>
   <v>       0.12469540       0.37544727       0.62455273 </v>
   <v>       0.62508239       0.37491761       0.62508239 </v>
   <v>       0.12507203       0.87492797       0.62421357 </v>
   <v>       0.62455273       0.87530460       0.62455273 </v>
   <v>       0.37544727       0.37544727       0.12469540 </v>
   <v>       0.87492797       0.37578643       0.12507203 </v>
   <v>       0.37578643       0.87492797       0.12507203 </v>
   <v>       0.87039164       0.87039164       0.12960836 </v>
   <v>       0.37491761       0.37491761       0.62508239 </v>
   <v>       0.87530460       0.37544727       0.62455273 </v>
   <v>       0.37544727       0.87530460       0.62455273 </v>
   <v>       0.87492797       0.87492797       0.62421357 </v>
   <v>       0.12507203       0.12507203       0.37578643 </v>
   <v>       0.62455273       0.12469540       0.37544727 </v>
   <v>       0.12469540       0.62455273       0.37544727 </v>
   <v>       0.62508239       0.62508239       0.37491761 </v>
   <v>       0.12960836       0.12960836       0.87039164 </v>
   <v>       0.62421357       0.12507203       0.87492797 </v>
   <v>       0.12507203       0.62421357       0.87492797 </v>
   <v>       0.62455273       0.62455273       0.87530460 </v>
   <v>       0.37544727       0.12469540       0.37544727 </v>
   <v>       0.87492797       0.12507203       0.37578643 </v>
   <v>       0.37491761       0.62508239       0.37491761 </v>
   <v>       0.87530460       0.62455273       0.37544727 </v>
   <v>       0.37578643       0.12507203       0.87492797 </v>
   <v>       0.87039164       0.12960836       0.87039164 </v>
   <v>       0.37544727       0.62455273       0.87530460 </v>
   <v>       0.87492797       0.62421357       0.87492797 </v>
   <v>       0.12469540       0.37544727       0.37544727 </v>
   <v>       0.62508239       0.37491761       0.37491761 </v>
   <v>       0.12507203       0.87492797       0.37578643 </v>
   <v>       0.62455273       0.87530460       0.37544727 </v>
   <v>       0.12507203       0.37578643       0.87492797 </v>
   <v>       0.62455273       0.37544727       0.87530460 </v>
   <v>       0.12960836       0.87039164       0.87039164 </v>
   <v>       0.62421357       0.87492797       0.87492797 </v>
   <v>       0.37491761       0.37491761       0.37491761 </v>
   <v>       0.87530460       0.37544727       0.37544727 </v>
   <v>       0.37544727       0.87530460       0.37544727 </v>
   <v>       0.87492797       0.87492797       0.37578643 </v>
   <v>       0.37544727       0.37544727       0.87530460 </v>
   <v>       0.87492797       0.37578643       0.87492797 </v>
   <v>       0.37578643       0.87492797       0.87492797 </v>
   <v>       0.87039164       0.87039164       0.87039164 </v>
  </varray>
 </structure>
</modeling>
