<?xml version="1.0" encoding="ISO-8859-1"?>
<modeling>
 <generator>
  <i name="program" type="string">vasp </i>
  <i name="version" type="string">5.4.4.18Apr17-6-g9f103f2a35  </i>
  <i name="subversion" type="string">(build Apr 28 2017 11:12:57) complex            parallel </i>
  <i name="platform" type="string">LinuxIFC </i>
  <i name="date" type="string">2018 06 27 </i>
  <i name="time" type="string">23:29:01 </i>
 </generator>
 <incar>
  <i type="string" name="PREC">accurate</i>
  <i type="int" name="IALGO">    38</i>
  <i type="int" name="IBRION">    -1</i>
  <i name="EDIFF">      0.00000001</i>
  <i type="int" name="ISYM">     0</i>
  <i name="ENCUT">    270.00000000</i>
  <i type="logical" name="LREAL"> F  </i>
  <i type="int" name="ISMEAR">     0</i>
  <i name="SIGMA">      0.01000000</i>
  <i type="logical" name="LWAVE"> F  </i>
  <i type="logical" name="LCHARG"> F  </i>
  <v type="int" name="KPOINT_BSE">    -1     0     0     0</v>
 </incar>
 <structure name="primitive_cell" >
  <crystal>
   <varray name="basis" >
    <v>      12.74739769       0.00000000       0.00000000 </v>
    <v>       0.00000000      12.74739769       0.00000000 </v>
    <v>       0.00000000       0.00000000      12.74739769 </v>
   </varray>
   <i name="volume">   2071.40301882 </i>
   <varray name="rec_basis" >
    <v>       0.07844738       0.00000000       0.00000000 </v>
    <v>       0.00000000       0.07844738       0.00000000 </v>
    <v>       0.00000000       0.00000000       0.07844738 </v>
   </varray>
  </crystal>
  <varray name="positions" >
   <v>       0.00000000       0.00000000       0.00000000 </v>
   <v>       0.12960836       0.12960836       0.12960836 </v>
   <v>      -0.12960836       0.12960836       0.12960836 </v>
   <v>       0.12960836      -0.12960836       0.12960836 </v>
   <v>      -0.12960836      -0.12960836       0.12960836 </v>
   <v>       0.12960836       0.12960836      -0.12960836 </v>
   <v>      -0.12960836       0.12960836      -0.12960836 </v>
   <v>       0.12960836      -0.12960836      -0.12960836 </v>
   <v>      -0.12960836      -0.12960836      -0.12960836 </v>
   <v>       0.25140293       0.25140293       0.00000000 </v>
   <v>      -0.25140293       0.25140293       0.00000000 </v>
   <v>       0.25140293      -0.25140293       0.00000000 </v>
   <v>      -0.25140293      -0.25140293       0.00000000 </v>
   <v>       0.25140293       0.00000000       0.25140293 </v>
   <v>      -0.25140293       0.00000000       0.25140293 </v>
   <v>       0.25140293       0.00000000      -0.25140293 </v>
   <v>      -0.25140293       0.00000000      -0.25140293 </v>
   <v>       0.00000000       0.25140293       0.25140293 </v>
   <v>       0.00000000      -0.25140293       0.25140293 </v>
   <v>       0.00000000       0.25140293      -0.25140293 </v>
   <v>       0.00000000      -0.25140293      -0.25140293 </v>
   <v>      -0.37578643       0.12507203       0.12507203 </v>
   <v>       0.12507203      -0.37578643       0.12507203 </v>
   <v>       0.12507203       0.12507203      -0.37578643 </v>
   <v>       0.37578643       0.12507203       0.12507203 </v>
   <v>      -0.12507203      -0.37578643       0.12507203 </v>
   <v>      -0.12507203       0.12507203      -0.37578643 </v>
   <v>       0.12507203       0.37578643       0.12507203 </v>
   <v>      -0.37578643      -0.12507203       0.12507203 </v>
   <v>       0.12507203      -0.12507203      -0.37578643 </v>
   <v>      -0.12507203       0.37578643       0.12507203 </v>
   <v>       0.37578643      -0.12507203       0.12507203 </v>
   <v>      -0.12507203      -0.12507203      -0.37578643 </v>
   <v>       0.12507203       0.12507203       0.37578643 </v>
   <v>      -0.37578643       0.12507203      -0.12507203 </v>
   <v>       0.12507203      -0.37578643      -0.12507203 </v>
   <v>      -0.12507203       0.12507203       0.37578643 </v>
   <v>       0.37578643       0.12507203      -0.12507203 </v>
   <v>      -0.12507203      -0.37578643      -0.12507203 </v>
   <v>       0.12507203      -0.12507203       0.37578643 </v>
   <v>       0.12507203       0.37578643      -0.12507203 </v>
   <v>      -0.37578643      -0.12507203      -0.12507203 </v>
   <v>      -0.12507203      -0.12507203       0.37578643 </v>
   <v>      -0.12507203       0.37578643      -0.12507203 </v>
   <v>       0.37578643      -0.12507203      -0.12507203 </v>
   <v>      -0.50000000       0.00000000       0.00000000 </v>
   <v>       0.00000000      -0.50000000       0.00000000 </v>
   <v>       0.00000000       0.00000000      -0.50000000 </v>
   <v>      -0.37544727      -0.37544727       0.12469540 </v>
   <v>      -0.37544727       0.12469540      -0.37544727 </v>
   <v>       0.12469540      -0.37544727      -0.37544727 </v>
   <v>       0.37544727      -0.37544727       0.12469540 </v>
   <v>       0.37544727       0.12469540      -0.37544727 </v>
   <v>      -0.12469540      -0.37544727      -0.37544727 </v>
   <v>      -0.37544727       0.37544727       0.12469540 </v>
   <v>       0.12469540       0.37544727      -0.37544727 </v>
   <v>      -0.37544727      -0.12469540      -0.37544727 </v>
   <v>       0.37544727       0.37544727       0.12469540 </v>
   <v>      -0.12469540       0.37544727      -0.37544727 </v>
   <v>       0.37544727      -0.12469540      -0.37544727 </v>
   <v>      -0.37544727       0.12469540       0.37544727 </v>
   <v>       0.12469540      -0.37544727       0.37544727 </v>
   <v>      -0.37544727      -0.37544727      -0.12469540 </v>
   <v>       0.37544727       0.12469540       0.37544727 </v>
   <v>      -0.12469540      -0.37544727       0.37544727 </v>
   <v>       0.37544727      -0.37544727      -0.12469540 </v>
   <v>       0.12469540       0.37544727       0.37544727 </v>
   <v>      -0.37544727      -0.12469540       0.37544727 </v>
   <v>      -0.37544727       0.37544727      -0.12469540 </v>
   <v>      -0.12469540       0.37544727       0.37544727 </v>
   <v>       0.37544727      -0.12469540       0.37544727 </v>
   <v>       0.37544727       0.37544727      -0.12469540 </v>
   <v>       0.24957198       0.25012668       0.49944529 </v>
   <v>      -0.25012668       0.25012668      -0.50000000 </v>
   <v>       0.25012668      -0.25012668      -0.50000000 </v>
   <v>      -0.25012668      -0.25012668      -0.50000000 </v>
   <v>       0.25012668      -0.50000000       0.25012668 </v>
   <v>      -0.25012668      -0.50000000       0.25012668 </v>
   <v>       0.25012668      -0.50000000      -0.25012668 </v>
   <v>      -0.25012668      -0.50000000      -0.25012668 </v>
   <v>      -0.50000000       0.25012668       0.25012668 </v>
   <v>      -0.50000000      -0.25012668       0.25012668 </v>
   <v>      -0.50000000       0.25012668      -0.25012668 </v>
   <v>      -0.50000000      -0.25012668      -0.25012668 </v>
   <v>      -0.37491761      -0.37491761      -0.37491761 </v>
   <v>       0.37491761      -0.37491761      -0.37491761 </v>
   <v>      -0.37491761       0.37491761      -0.37491761 </v>
   <v>       0.37491761       0.37491761      -0.37491761 </v>
   <v>      -0.37491761      -0.37491761       0.37491761 </v>
   <v>       0.37491761      -0.37491761       0.37491761 </v>
   <v>      -0.37491761       0.37491761       0.37491761 </v>
   <v>       0.37491761       0.37491761       0.37491761 </v>
   <v>      -0.50000000      -0.50000000       0.00000000 </v>
   <v>      -0.50000000       0.00000000      -0.50000000 </v>
   <v>       0.00000000      -0.50000000      -0.50000000 </v>
   <v>      -0.50000000      -0.50000000      -0.50000000 </v>
  </varray>
 </structure>
 <varray name="primitive_index" >
  <v type="int" >        1 </v>
  <v type="int" >       33 </v>
  <v type="int" >       42 </v>
  <v type="int" >       51 </v>
  <v type="int" >       60 </v>
  <v type="int" >       69 </v>
  <v type="int" >       78 </v>
  <v type="int" >       87 </v>
  <v type="int" >       96 </v>
  <v type="int" >        9 </v>
  <v type="int" >       10 </v>
  <v type="int" >       11 </v>
  <v type="int" >       12 </v>
  <v type="int" >       17 </v>
  <v type="int" >       18 </v>
  <v type="int" >       21 </v>
  <v type="int" >       22 </v>
  <v type="int" >       25 </v>
  <v type="int" >       27 </v>
  <v type="int" >       29 </v>
  <v type="int" >       31 </v>
  <v type="int" >       34 </v>
  <v type="int" >       35 </v>
  <v type="int" >       37 </v>
  <v type="int" >       41 </v>
  <v type="int" >       44 </v>
  <v type="int" >       46 </v>
  <v type="int" >       49 </v>
  <v type="int" >       52 </v>
  <v type="int" >       55 </v>
  <v type="int" >       58 </v>
  <v type="int" >       59 </v>
  <v type="int" >       64 </v>
  <v type="int" >       65 </v>
  <v type="int" >       70 </v>
  <v type="int" >       71 </v>
  <v type="int" >       74 </v>
  <v type="int" >       77 </v>
  <v type="int" >       80 </v>
  <v type="int" >       83 </v>
  <v type="int" >       85 </v>
  <v type="int" >       88 </v>
  <v type="int" >       92 </v>
  <v type="int" >       94 </v>
  <v type="int" >       95 </v>
  <v type="int" >        2 </v>
  <v type="int" >        3 </v>
  <v type="int" >        5 </v>
  <v type="int" >       36 </v>
  <v type="int" >       38 </v>
  <v type="int" >       39 </v>
  <v type="int" >       43 </v>
  <v type="int" >       45 </v>
  <v type="int" >       48 </v>
  <v type="int" >       50 </v>
  <v type="int" >       53 </v>
  <v type="int" >       56 </v>
  <v type="int" >       57 </v>
  <v type="int" >       62 </v>
  <v type="int" >       63 </v>
  <v type="int" >       66 </v>
  <v type="int" >       67 </v>
  <v type="int" >       72 </v>
  <v type="int" >       73 </v>
  <v type="int" >       76 </v>
  <v type="int" >       79 </v>
  <v type="int" >       81 </v>
  <v type="int" >       84 </v>
  <v type="int" >       86 </v>
  <v type="int" >       90 </v>
  <v type="int" >       91 </v>
  <v type="int" >       93 </v>
  <v type="int" >       13 </v>
  <v type="int" >       14 </v>
  <v type="int" >       15 </v>
  <v type="int" >       16 </v>
  <v type="int" >       19 </v>
  <v type="int" >       20 </v>
  <v type="int" >       23 </v>
  <v type="int" >       24 </v>
  <v type="int" >       26 </v>
  <v type="int" >       28 </v>
  <v type="int" >       30 </v>
  <v type="int" >       32 </v>
  <v type="int" >       40 </v>
  <v type="int" >       47 </v>
  <v type="int" >       54 </v>
  <v type="int" >       61 </v>
  <v type="int" >       68 </v>
  <v type="int" >       75 </v>
  <v type="int" >       82 </v>
  <v type="int" >       89 </v>
  <v type="int" >        4 </v>
  <v type="int" >        6 </v>
  <v type="int" >        7 </v>
  <v type="int" >        8 </v>
 </varray>
 <kpoints>
  <generation param="Gamma">
   <v type="int" name="divisions">       1        1        1 </v>
   <v name="usershift">      0.00000000       0.00000000       0.00000000 </v>
   <v name="genvec1">      1.00000000       0.00000000       0.00000000 </v>
   <v name="genvec2">      0.00000000       1.00000000       0.00000000 </v>
   <v name="genvec3">      0.00000000       0.00000000       1.00000000 </v>
   <v name="shift">      0.00000000       0.00000000       0.00000000 </v>
  </generation>
  <varray name="kpointlist" >
   <v>       0.00000000       0.00000000       0.00000000 </v>
  </varray>
  <varray name="weights" >
   <v>       1.00000000 </v>
  </varray>
 </kpoints>
 <parameters>
  <separator name="general" >
   <i type="string" name="SYSTEM">unknown system</i>
   <i type="logical" name="LCOMPAT"> F  </i>
  </separator>
  <separator name="electronic" >
   <i type="string" name="PREC">accura</i>
   <i name="ENMAX">    270.00000000</i>
   <i name="ENAUG">    454.73400000</i>
   <i name="EDIFF">      0.00000001</i>
   <i type="int" name="IALGO">    38</i>
   <i type="int" name="IWAVPR">    10</i>
   <i type="int" name="NBANDS">   178</i>
   <i name="NELECT">    256.00000000</i>
   <i type="int" name="TURBO">     0</i>
   <i type="int" name="IRESTART">     0</i>
   <i type="int" name="NREBOOT">     0</i>
   <i type="int" name="NMIN">     0</i>
   <i name="EREF">      0.00000000</i>
   <separator name="electronic smearing" >
    <i type="int" name="ISMEAR">     0</i>
    <i name="SIGMA">      0.01000000</i>
    <i name="KSPACING">      0.50000000</i>
    <i type="logical" name="KGAMMA"> T  </i>
   </separator>
   <separator name="electronic projectors" >
    <i type="logical" name="LREAL"> F  </i>
    <v name="ROPT">      0.00000000      0.00000000      0.00000000</v>
    <i type="int" name="LMAXPAW">  -100</i>
    <i type="int" name="LMAXMIX">     2</i>
    <i type="logical" name="NLSPLINE"> F  </i>
   </separator>
   <separator name="electronic startup" >
    <i type="int" name="ISTART">     0</i>
    <i type="int" name="ICHARG">     2</i>
    <i type="int" name="INIWAV">     1</i>
   </separator>
   <separator name="electronic spin" >
    <i type="int" name="ISPIN">     1</i>
    <i type="logical" name="LNONCOLLINEAR"> F  </i>
    <v name="MAGMOM">      1.00000000      1.00000000      1.00000000      1.00000000      1.00000000      1.00000000      1.00000000      1.00000000      1.00000000      1.00000000      1.00000000      1.00000000      1.00000000      1.00000000      1.00000000      1.00000000      1.00000000      1.00000000      1.00000000      1.00000000
      1.00000000      1.00000000      1.00000000      1.00000000      1.00000000      1.00000000      1.00000000      1.00000000      1.00000000      1.00000000      1.00000000      1.00000000      1.00000000      1.00000000      1.00000000      1.00000000      1.00000000      1.00000000      1.00000000      1.00000000
      1.00000000      1.00000000      1.00000000      1.00000000      1.00000000      1.00000000      1.00000000      1.00000000      1.00000000      1.00000000      1.00000000      1.00000000      1.00000000      1.00000000      1.00000000      1.00000000      1.00000000      1.00000000      1.00000000      1.00000000
      1.00000000      1.00000000      1.00000000      1.00000000      1.00000000      1.00000000      1.00000000      1.00000000      1.00000000      1.00000000      1.00000000      1.00000000      1.00000000      1.00000000      1.00000000      1.00000000      1.00000000      1.00000000      1.00000000      1.00000000
      1.00000000      1.00000000      1.00000000      1.00000000      1.00000000      1.00000000      1.00000000      1.00000000      1.00000000      1.00000000      1.00000000      1.00000000      1.00000000      1.00000000      1.00000000      1.00000000</v>
    <i name="NUPDOWN">     -1.00000000</i>
    <i type="logical" name="LSORBIT"> F  </i>
    <v name="SAXIS">      0.00000000      0.00000000      1.00000000</v>
    <i type="logical" name="LSPIRAL"> F  </i>
    <v name="QSPIRAL">      0.00000000      0.00000000      0.00000000</v>
    <i type="logical" name="LZEROZ"> F  </i>
   </separator>
   <separator name="electronic exchange-correlation" >
    <i type="logical" name="LASPH"> F  </i>
    <i type="logical" name="LMETAGGA"> F  </i>
   </separator>
   <separator name="electronic convergence" >
    <i type="int" name="NELM">    60</i>
    <i type="int" name="NELMDL">    -5</i>
    <i type="int" name="NELMIN">     2</i>
    <i name="ENINI">    270.00000000</i>
    <separator name="electronic convergence detail" >
     <i type="logical" name="LDIAG"> T  </i>
     <i type="logical" name="LSUBROT"> F  </i>
     <i name="WEIMIN">      0.00000000</i>
     <i name="EBREAK">      0.00000000</i>
     <i name="DEPER">      0.30000000</i>
     <i type="int" name="NRMM">     4</i>
     <i name="TIME">      0.40000000</i>
    </separator>
   </separator>
   <separator name="electronic mixer" >
    <i name="AMIX">      0.40000000</i>
    <i name="BMIX">      1.00000000</i>
    <i name="AMIN">      0.10000000</i>
    <i name="AMIX_MAG">      1.60000000</i>
    <i name="BMIX_MAG">      1.00000000</i>
    <separator name="electronic mixer details" >
     <i type="int" name="IMIX">     4</i>
     <i type="logical" name="MIXFIRST"> F  </i>
     <i type="int" name="MAXMIX">   -45</i>
     <i name="WC">    100.00000000</i>
     <i type="int" name="INIMIX">     1</i>
     <i type="int" name="MIXPRE">     1</i>
     <i type="int" name="MREMOVE">     5</i>
    </separator>
   </separator>
   <separator name="electronic dipolcorrection" >
    <i type="logical" name="LDIPOL"> F  </i>
    <i type="logical" name="LMONO"> F  </i>
    <i type="int" name="IDIPOL">     0</i>
    <i name="EPSILON">      1.00000000</i>
    <v name="DIPOL">   -100.00000000   -100.00000000   -100.00000000</v>
    <i name="EFIELD">      0.00000000</i>
   </separator>
  </separator>
  <separator name="grids" >
   <i type="int" name="NGX">    70</i>
   <i type="int" name="NGY">    70</i>
   <i type="int" name="NGZ">    70</i>
   <i type="int" name="NGXF">   140</i>
   <i type="int" name="NGYF">   140</i>
   <i type="int" name="NGZF">   140</i>
   <i type="logical" name="ADDGRID"> F  </i>
  </separator>
  <separator name="ionic" >
   <i type="int" name="NSW">     0</i>
   <i type="int" name="IBRION">    -1</i>
   <i type="int" name="MDALGO">     0</i>
   <i type="int" name="ISIF">     2</i>
   <i name="PSTRESS">      0.00000000</i>
   <i name="EDIFFG">      0.00000010</i>
   <i type="int" name="NFREE">     0</i>
   <i name="POTIM">      0.50000000</i>
   <i name="SMASS">     -3.00000000</i>
   <i name="SCALEE">      1.00000000</i>
  </separator>
  <separator name="ionic md" >
   <i name="TEBEG">      0.00010000</i>
   <i name="TEEND">      0.00010000</i>
   <i type="int" name="NBLOCK">     1</i>
   <i type="int" name="KBLOCK">     1</i>
   <i type="int" name="NPACO">   256</i>
   <i name="APACO">     16.00000000</i>
  </separator>
  <separator name="symmetry" >
   <i type="int" name="ISYM">     0</i>
   <i name="SYMPREC">      0.00001000</i>
  </separator>
  <separator name="dos" >
   <i type="int" name="LORBIT">     0</i>
   <v name="RWIGS">     -1.00000000     -1.00000000     -1.00000000</v>
   <i type="int" name="NEDOS">   301</i>
   <i name="EMIN">     10.00000000</i>
   <i name="EMAX">    -10.00000000</i>
   <i name="EFERMI">      0.00000000</i>
  </separator>
  <separator name="writing" >
   <i type="int" name="NWRITE">     2</i>
   <i type="logical" name="LWAVE"> F  </i>
   <i type="logical" name="LDOWNSAMPLE"> F  </i>
   <i type="logical" name="LCHARG"> F  </i>
   <i type="logical" name="LPARD"> F  </i>
   <i type="logical" name="LVTOT"> F  </i>
   <i type="logical" name="LVHAR"> F  </i>
   <i type="logical" name="LELF"> F  </i>
   <i type="logical" name="LOPTICS"> F  </i>
   <v name="STM">      0.00000000      0.00000000      0.00000000      0.00000000      0.00000000      0.00000000      0.00000000</v>
  </separator>
  <separator name="performance" >
   <i type="int" name="NPAR">     2</i>
   <i type="int" name="NSIM">     4</i>
   <i type="int" name="NBLK">    -1</i>
   <i type="logical" name="LPLANE"> T  </i>
   <i type="logical" name="LSCALAPACK"> T  </i>
   <i type="logical" name="LSCAAWARE"> F  </i>
   <i type="logical" name="LSCALU"> F  </i>
   <i type="logical" name="LASYNC"> F  </i>
   <i type="logical" name="LORBITALREAL"> F  </i>
  </separator>
  <separator name="miscellaneous" >
   <i type="int" name="IDIOT">     3</i>
   <i type="int" name="ISPECIAL">     0</i>
   <i type="logical" name="LMUSIC"> F  </i>
   <v name="POMASS">    118.71000000     28.08500000     24.30500000</v>
   <v name="DARWINR">      0.00000000      0.00000000      0.00000000</v>
   <v name="DARWINV">      1.00000000      1.00000000      1.00000000</v>
   <i type="logical" name="LCORR"> T  </i>
  </separator>
  <i type="logical" name="GGA_COMPAT"> T  </i>
  <i type="logical" name="LBERRY"> F  </i>
  <i type="int" name="ICORELEVEL">     0</i>
  <i type="logical" name="LDAU"> F  </i>
  <i type="int" name="I_CONSTRAINED_M">     0</i>
  <separator name="electronic exchange-correlation" >
   <i type="string" name="GGA">--</i>
   <i type="int" name="VOSKOWN">     0</i>
   <i type="logical" name="LHFCALC"> F  </i>
   <i type="string" name="PRECFOCK"></i>
   <i type="logical" name="LSYMGRAD"> F  </i>
   <i type="logical" name="LHFONE"> F  </i>
   <i type="logical" name="LRHFCALC"> F  </i>
   <i type="logical" name="LTHOMAS"> F  </i>
   <i type="logical" name="LMODELHF"> F  </i>
   <i name="ENCUT4O">     -1.00000000</i>
   <i type="int" name="EXXOEP">     0</i>
   <i type="int" name="FOURORBIT">     0</i>
   <i name="AEXX">      0.00000000</i>
   <i name="HFALPHA">      0.00000000</i>
   <i name="MCALPHA">      0.00000000</i>
   <i name="ALDAX">      1.00000000</i>
   <i name="AGGAX">      1.00000000</i>
   <i name="ALDAC">      1.00000000</i>
   <i name="AGGAC">      1.00000000</i>
   <i type="int" name="NKREDX">     1</i>
   <i type="int" name="NKREDY">     1</i>
   <i type="int" name="NKREDZ">     1</i>
   <i type="logical" name="SHIFTRED"> F  </i>
   <i type="logical" name="ODDONLY"> F  </i>
   <i type="logical" name="EVENONLY"> F  </i>
   <i type="int" name="LMAXFOCK">     0</i>
   <i type="int" name="NMAXFOCKAE">     0</i>
   <i type="logical" name="LFOCKAEDFT"> F  </i>
   <i name="HFSCREEN">      0.00000000</i>
   <i name="HFSCREENC">      0.00000000</i>
   <i type="int" name="NBANDSGWLOW">     0</i>
  </separator>
  <separator name="vdW DFT" >
   <i type="logical" name="LUSE_VDW"> F  </i>
   <i name="Zab_VDW">     -0.84910000</i>
   <i name="PARAM1">      0.12340000</i>
   <i name="PARAM2">      1.00000000</i>
   <i name="PARAM3">      0.00000000</i>
  </separator>
  <separator name="model GW" >
   <i type="int" name="MODEL_GW">     0</i>
   <i name="MODEL_EPS0">     12.94626887</i>
   <i name="MODEL_ALPHA">      1.00000000</i>
  </separator>
  <separator name="linear response parameters" >
   <i type="logical" name="LEPSILON"> F  </i>
   <i type="logical" name="LRPA"> F  </i>
   <i type="logical" name="LNABLA"> F  </i>
   <i type="logical" name="LVEL"> F  </i>
   <i type="int" name="KINTER">     0</i>
   <i name="CSHIFT">      0.10000000</i>
   <i name="OMEGAMAX">     -1.00000000</i>
   <i name="DEG_THRESHOLD">      0.00200000</i>
   <i name="RTIME">     -0.10000000</i>
   <i name="WPLASMAI">      0.00000000</i>
   <v name="DFIELD">      0.00000000      0.00000000      0.00000000</v>
   <v name="WPLASMA">      0.00000000      0.00000000      0.00000000      0.00000000      0.00000000      0.00000000      0.00000000      0.00000000      0.00000000</v>
  </separator>
  <separator name="orbital magnetization" >
   <i type="logical" name="NUCIND"> F  </i>
   <v name="MAGPOS">      0.00000000      0.00000000      0.00000000</v>
   <i type="logical" name="LNICSALL"> T  </i>
   <i type="logical" name="ORBITALMAG"> F  </i>
   <i type="logical" name="LMAGBLOCH"> F  </i>
   <i type="logical" name="LCHIMAG"> F  </i>
   <i type="logical" name="LGAUGE"> T  </i>
   <i type="int" name="MAGATOM">     0</i>
   <v name="MAGDIPOL">      0.00000000      0.00000000      0.00000000</v>
   <v name="AVECCONST">      0.00000000      0.00000000      0.00000000</v>
  </separator>
  <separator name="response functions" >
   <i type="logical" name="LADDER"> F  </i>
   <i type="logical" name="LRPAFORCE"> F  </i>
   <i type="logical" name="LFXC"> F  </i>
   <i type="logical" name="LHARTREE"> T  </i>
   <i type="int" name="IBSE">     0</i>
   <v type="int" name="KPOINT">    -1     0     0     0</v>
   <i type="logical" name="LTCTE"> F  </i>
   <i type="logical" name="LTETE"> F  </i>
   <i type="logical" name="LTRIPLET"> F  </i>
   <i type="logical" name="LFXCEPS"> F  </i>
   <i type="logical" name="LFXHEG"> F  </i>
   <i type="int" name="NATURALO">     2</i>
   <i type="logical" name="L2ORDER"> F  </i>
   <i type="logical" name="LMP2LT"> F  </i>
   <i type="logical" name="LUSEW"> F  </i>
   <i name="ENCUTGW">     -2.00000000</i>
   <i name="ENCUTGWSOFT">     -2.00000000</i>
   <i name="ENCUTLF">     -1.00000000</i>
   <i type="int" name="LMAXMP2">    -1</i>
   <i name="SCISSOR">      0.00000000</i>
   <i type="int" name="NOMEGA">     0</i>
   <i type="int" name="NOMEGAR">     0</i>
   <i type="int" name="NBANDSGW">    -1</i>
   <i type="int" name="NBANDSO">    -1</i>
   <i type="int" name="NBANDSV">    -1</i>
   <i type="int" name="NELM">     1</i>
   <i type="int" name="NELMHF">     1</i>
   <i type="int" name="DIM">     3</i>
   <i type="int" name="ANTIRES">     0</i>
   <i name="OMEGAMAX">    -30.00000000</i>
   <i name="OMEGAMIN">    -30.00000000</i>
   <i name="OMEGATL">   -200.00000000</i>
   <i type="int" name="OMEGAGRID">   140</i>
   <i name="CSHIFT">     -0.10000000</i>
   <i type="logical" name="SELFENERGY"> F  </i>
   <i type="logical" name="LSPECTRAL"> F  </i>
   <i type="logical" name="LSPECTRALGW"> F  </i>
   <i type="logical" name="LSINGLES"> F  </i>
   <i type="logical" name="LFERMIGW"> F  </i>
   <i type="logical" name="ODDONLYGW"> F  </i>
   <i type="logical" name="EVENONLYGW"> F  </i>
   <i type="int" name="NKREDLFX">     1</i>
   <i type="int" name="NKREDLFY">     1</i>
   <i type="int" name="NKREDLFZ">     1</i>
   <i type="int" name="MAXMEM">  2800</i>
   <i type="int" name="TELESCOPE">     0</i>
   <i type="int" name="TAUPAR">     1</i>
   <i type="int" name="OMEGAPAR">    -1</i>
   <i name="LAMBDA">      1.00000000</i>
  </separator>
  <separator name="External order field" >
   <i name="OFIELD_KAPPA">      0.00000000</i>
   <v name="OFIELD_K">      0.00000000      0.00000000      0.00000000</v>
   <i name="OFIELD_Q6_NEAR">      0.00000000</i>
   <i name="OFIELD_Q6_FAR">      0.00000000</i>
   <i name="OFIELD_A">      0.00000000</i>
  </separator>
 </parameters>
 <atominfo>
  <atoms>      96 </atoms>
  <types>       3 </types>
  <array name="atoms" >
   <dimension dim="1">ion</dimension>
   <field type="string">element</field>
   <field type="int">atomtype</field>
   <set>
    <rc><c>Sn</c><c>   1</c></rc>
    <rc><c>Si</c><c>   2</c></rc>
    <rc><c>Si</c><c>   2</c></rc>
    <rc><c>Si</c><c>   2</c></rc>
    <rc><c>Si</c><c>   2</c></rc>
    <rc><c>Si</c><c>   2</c></rc>
    <rc><c>Si</c><c>   2</c></rc>
    <rc><c>Si</c><c>   2</c></rc>
    <rc><c>Si</c><c>   2</c></rc>
    <rc><c>Si</c><c>   2</c></rc>
    <rc><c>Si</c><c>   2</c></rc>
    <rc><c>Si</c><c>   2</c></rc>
    <rc><c>Si</c><c>   2</c></rc>
    <rc><c>Si</c><c>   2</c></rc>
    <rc><c>Si</c><c>   2</c></rc>
    <rc><c>Si</c><c>   2</c></rc>
    <rc><c>Si</c><c>   2</c></rc>
    <rc><c>Si</c><c>   2</c></rc>
    <rc><c>Si</c><c>   2</c></rc>
    <rc><c>Si</c><c>   2</c></rc>
    <rc><c>Si</c><c>   2</c></rc>
    <rc><c>Si</c><c>   2</c></rc>
    <rc><c>Si</c><c>   2</c></rc>
    <rc><c>Si</c><c>   2</c></rc>
    <rc><c>Si</c><c>   2</c></rc>
    <rc><c>Si</c><c>   2</c></rc>
    <rc><c>Si</c><c>   2</c></rc>
    <rc><c>Si</c><c>   2</c></rc>
    <rc><c>Si</c><c>   2</c></rc>
    <rc><c>Si</c><c>   2</c></rc>
    <rc><c>Si</c><c>   2</c></rc>
    <rc><c>Si</c><c>   2</c></rc>
    <rc><c>Mg</c><c>   3</c></rc>
    <rc><c>Mg</c><c>   3</c></rc>
    <rc><c>Mg</c><c>   3</c></rc>
    <rc><c>Mg</c><c>   3</c></rc>
    <rc><c>Mg</c><c>   3</c></rc>
    <rc><c>Mg</c><c>   3</c></rc>
    <rc><c>Mg</c><c>   3</c></rc>
    <rc><c>Mg</c><c>   3</c></rc>
    <rc><c>Mg</c><c>   3</c></rc>
    <rc><c>Mg</c><c>   3</c></rc>
    <rc><c>Mg</c><c>   3</c></rc>
    <rc><c>Mg</c><c>   3</c></rc>
    <rc><c>Mg</c><c>   3</c></rc>
    <rc><c>Mg</c><c>   3</c></rc>
    <rc><c>Mg</c><c>   3</c></rc>
    <rc><c>Mg</c><c>   3</c></rc>
    <rc><c>Mg</c><c>   3</c></rc>
    <rc><c>Mg</c><c>   3</c></rc>
    <rc><c>Mg</c><c>   3</c></rc>
    <rc><c>Mg</c><c>   3</c></rc>
    <rc><c>Mg</c><c>   3</c></rc>
    <rc><c>Mg</c><c>   3</c></rc>
    <rc><c>Mg</c><c>   3</c></rc>
    <rc><c>Mg</c><c>   3</c></rc>
    <rc><c>Mg</c><c>   3</c></rc>
    <rc><c>Mg</c><c>   3</c></rc>
    <rc><c>Mg</c><c>   3</c></rc>
    <rc><c>Mg</c><c>   3</c></rc>
    <rc><c>Mg</c><c>   3</c></rc>
    <rc><c>Mg</c><c>   3</c></rc>
    <rc><c>Mg</c><c>   3</c></rc>
    <rc><c>Mg</c><c>   3</c></rc>
    <rc><c>Mg</c><c>   3</c></rc>
    <rc><c>Mg</c><c>   3</c></rc>
    <rc><c>Mg</c><c>   3</c></rc>
    <rc><c>Mg</c><c>   3</c></rc>
    <rc><c>Mg</c><c>   3</c></rc>
    <rc><c>Mg</c><c>   3</c></rc>
    <rc><c>Mg</c><c>   3</c></rc>
    <rc><c>Mg</c><c>   3</c></rc>
    <rc><c>Mg</c><c>   3</c></rc>
    <rc><c>Mg</c><c>   3</c></rc>
    <rc><c>Mg</c><c>   3</c></rc>
    <rc><c>Mg</c><c>   3</c></rc>
    <rc><c>Mg</c><c>   3</c></rc>
    <rc><c>Mg</c><c>   3</c></rc>
    <rc><c>Mg</c><c>   3</c></rc>
    <rc><c>Mg</c><c>   3</c></rc>
    <rc><c>Mg</c><c>   3</c></rc>
    <rc><c>Mg</c><c>   3</c></rc>
    <rc><c>Mg</c><c>   3</c></rc>
    <rc><c>Mg</c><c>   3</c></rc>
    <rc><c>Mg</c><c>   3</c></rc>
    <rc><c>Mg</c><c>   3</c></rc>
    <rc><c>Mg</c><c>   3</c></rc>
    <rc><c>Mg</c><c>   3</c></rc>
    <rc><c>Mg</c><c>   3</c></rc>
    <rc><c>Mg</c><c>   3</c></rc>
    <rc><c>Mg</c><c>   3</c></rc>
    <rc><c>Mg</c><c>   3</c></rc>
    <rc><c>Mg</c><c>   3</c></rc>
    <rc><c>Mg</c><c>   3</c></rc>
    <rc><c>Mg</c><c>   3</c></rc>
    <rc><c>Mg</c><c>   3</c></rc>
   </set>
  </array>
  <array name="atomtypes" >
   <dimension dim="1">type</dimension>
   <field type="int">atomspertype</field>
   <field type="string">element</field>
   <field>mass</field>
   <field>valence</field>
   <field type="string">pseudopotential</field>
   <set>
    <rc><c>   1</c><c>Sn</c><c>    118.71000000</c><c>      4.00000000</c><c>  PAW_PBE Sn 08Apr2002                  </c></rc>
    <rc><c>  31</c><c>Si</c><c>     28.08500000</c><c>      4.00000000</c><c>  PAW_PBE Si 05Jan2001                  </c></rc>
    <rc><c>  64</c><c>Mg</c><c>     24.30500000</c><c>      2.00000000</c><c>  PAW_PBE Mg 13Apr2007                  </c></rc>
   </set>
  </array>
 </atominfo>
 <structure name="initialpos" >
  <crystal>
   <varray name="basis" >
    <v>      12.74739769       0.00000000       0.00000000 </v>
    <v>       0.00000000      12.74739769       0.00000000 </v>
    <v>       0.00000000       0.00000000      12.74739769 </v>
   </varray>
   <i name="volume">   2071.40301882 </i>
   <varray name="rec_basis" >
    <v>       0.07844738       0.00000000       0.00000000 </v>
    <v>       0.00000000       0.07844738       0.00000000 </v>
    <v>       0.00000000       0.00000000       0.07844738 </v>
   </varray>
  </crystal>
  <varray name="positions" >
   <v>       0.00000000       0.00000000       0.00000000 </v>
   <v>       0.50000000       0.00000000       0.00000000 </v>
   <v>       0.00000000       0.50000000       0.00000000 </v>
   <v>       0.50000000       0.50000000       0.00000000 </v>
   <v>       0.00000000       0.00000000       0.50000000 </v>
   <v>       0.50000000       0.00000000       0.50000000 </v>
   <v>       0.00000000       0.50000000       0.50000000 </v>
   <v>       0.50000000       0.50000000       0.50000000 </v>
   <v>       0.25140293       0.25140293       0.00000000 </v>
   <v>       0.74859707       0.25140293       0.00000000 </v>
   <v>       0.25140293       0.74859707       0.00000000 </v>
   <v>       0.74859707       0.74859707       0.00000000 </v>
   <v>       0.24957198       0.25012668       0.49944529 </v>
   <v>       0.74987332       0.25012668       0.50000000 </v>
   <v>       0.25012668       0.74987332       0.50000000 </v>
   <v>       0.74987332       0.74987332       0.50000000 </v>
   <v>       0.25140293       0.00000000       0.25140293 </v>
   <v>       0.74859707       0.00000000       0.25140293 </v>
   <v>       0.25012668       0.50000000       0.25012668 </v>
   <v>       0.74987332       0.50000000       0.25012668 </v>
   <v>       0.25140293       0.00000000       0.74859707 </v>
   <v>       0.74859707       0.00000000       0.74859707 </v>
   <v>       0.25012668       0.50000000       0.74987332 </v>
   <v>       0.74987332       0.50000000       0.74987332 </v>
   <v>       0.00000000       0.25140293       0.25140293 </v>
   <v>       0.50000000       0.25012668       0.25012668 </v>
   <v>       0.00000000       0.74859707       0.25140293 </v>
   <v>       0.50000000       0.74987332       0.25012668 </v>
   <v>       0.00000000       0.25140293       0.74859707 </v>
   <v>       0.50000000       0.25012668       0.74987332 </v>
   <v>       0.00000000       0.74859707       0.74859707 </v>
   <v>       0.50000000       0.74987332       0.74987332 </v>
   <v>       0.12960836       0.12960836       0.12960836 </v>
   <v>       0.62421357       0.12507203       0.12507203 </v>
   <v>       0.12507203       0.62421357       0.12507203 </v>
   <v>       0.62455273       0.62455273       0.12469540 </v>
   <v>       0.12507203       0.12507203       0.62421357 </v>
   <v>       0.62455273       0.12469540       0.62455273 </v>
   <v>       0.12469540       0.62455273       0.62455273 </v>
   <v>       0.62508239       0.62508239       0.62508239 </v>
   <v>       0.37578643       0.12507203       0.12507203 </v>
   <v>       0.87039164       0.12960836       0.12960836 </v>
   <v>       0.37544727       0.62455273       0.12469540 </v>
   <v>       0.87492797       0.62421357       0.12507203 </v>
   <v>       0.37544727       0.12469540       0.62455273 </v>
   <v>       0.87492797       0.12507203       0.62421357 </v>
   <v>       0.37491761       0.62508239       0.62508239 </v>
   <v>       0.87530460       0.62455273       0.62455273 </v>
   <v>       0.12507203       0.37578643       0.12507203 </v>
   <v>       0.62455273       0.37544727       0.12469540 </v>
   <v>       0.12960836       0.87039164       0.12960836 </v>
   <v>       0.62421357       0.87492797       0.12507203 </v>
   <v>       0.12469540       0.37544727       0.62455273 </v>
   <v>       0.62508239       0.37491761       0.62508239 </v>
   <v>       0.12507203       0.87492797       0.62421357 </v>
   <v>       0.62455273       0.87530460       0.62455273 </v>
   <v>       0.37544727       0.37544727       0.12469540 </v>
   <v>       0.87492797       0.37578643       0.12507203 </v>
   <v>       0.37578643       0.87492797       0.12507203 </v>
   <v>       0.87039164       0.87039164       0.12960836 </v>
   <v>       0.37491761       0.37491761       0.62508239 </v>
   <v>       0.87530460       0.37544727       0.62455273 </v>
   <v>       0.37544727       0.87530460       0.62455273 </v>
   <v>       0.87492797       0.87492797       0.62421357 </v>
   <v>       0.12507203       0.12507203       0.37578643 </v>
   <v>       0.62455273       0.12469540       0.37544727 </v>
   <v>       0.12469540       0.62455273       0.37544727 </v>
   <v>       0.62508239       0.62508239       0.37491761 </v>
   <v>       0.12960836       0.12960836       0.87039164 </v>
   <v>       0.62421357       0.12507203       0.87492797 </v>
   <v>       0.12507203       0.62421357       0.87492797 </v>
   <v>       0.62455273       0.62455273       0.87530460 </v>
   <v>       0.37544727       0.12469540       0.37544727 </v>
   <v>       0.87492797       0.12507203       0.37578643 </v>
   <v>       0.37491761       0.62508239       0.37491761 </v>
   <v>       0.87530460       0.62455273       0.37544727 </v>
   <v>       0.37578643       0.12507203       0.87492797 </v>
   <v>       0.87039164       0.12960836       0.87039164 </v>
   <v>       0.37544727       0.62455273       0.87530460 </v>
   <v>       0.87492797       0.62421357       0.87492797 </v>
   <v>       0.12469540       0.37544727       0.37544727 </v>
   <v>       0.62508239       0.37491761       0.37491761 </v>
   <v>       0.12507203       0.87492797       0.37578643 </v>
   <v>       0.62455273       0.87530460       0.37544727 </v>
   <v>       0.12507203       0.37578643       0.87492797 </v>
   <v>       0.62455273       0.37544727       0.87530460 </v>
   <v>       0.12960836       0.87039164       0.87039164 </v>
   <v>       0.62421357       0.87492797       0.87492797 </v>
   <v>       0.37491761       0.37491761       0.37491761 </v>
   <v>       0.87530460       0.37544727       0.37544727 </v>
   <v>       0.37544727       0.87530460       0.37544727 </v>
   <v>       0.87492797       0.87492797       0.37578643 </v>
   <v>       0.37544727       0.37544727       0.87530460 </v>
   <v>       0.87492797       0.37578643       0.87492797 </v>
   <v>       0.37578643       0.87492797       0.87492797 </v>
   <v>       0.87039164       0.87039164       0.87039164 </v>
  </varray>
 </structure>
 <calculation>
  <scstep>
   <time name="dav">   13.30   13.34</time>
   <time name="total">   14.09   14.14</time>
   <energy>
    <i name="alphaZ">    214.09658884 </i>
    <i name="ewald">  -5218.82860767 </i>
    <i name="hartreedc">   -333.03030346 </i>
    <i name="XCdc">  -3539.85007076 </i>
    <i name="pawpsdc">   7100.88161447 </i>
    <i name="pawaedc">  -3112.42095010 </i>
    <i name="eentropy">     -0.00000000 </i>
    <i name="bandstr">    447.64042032 </i>
    <i name="atom">   4763.39200965 </i>
    <i name="e_fr_energy">    321.88070129 </i>
    <i name="e_wo_entrp">    321.88070129 </i>
    <i name="e_0_energy">    321.88070129 </i>
   </energy>
  </scstep>
  <scstep>
   <time name="dav">   15.38   15.41</time>
   <time name="total">   15.38   15.41</time>
   <energy>
    <i name="e_fr_energy">   -253.38059926 </i>
    <i name="e_wo_entrp">   -253.38059926 </i>
    <i name="e_0_energy">   -253.38059926 </i>
   </energy>
  </scstep>
  <scstep>
   <time name="dav">   15.43   15.46</time>
   <time name="total">   15.43   15.46</time>
   <energy>
    <i name="e_fr_energy">   -296.45477124 </i>
    <i name="e_wo_entrp">   -296.45477124 </i>
    <i name="e_0_energy">   -296.45477124 </i>
   </energy>
  </scstep>
  <scstep>
   <time name="dav">   15.21   15.24</time>
   <time name="total">   15.21   15.24</time>
   <energy>
    <i name="e_fr_energy">   -297.34078838 </i>
    <i name="e_wo_entrp">   -297.34078838 </i>
    <i name="e_0_energy">   -297.34078838 </i>
   </energy>
  </scstep>
  <scstep>
   <time name="dav">   15.43   15.46</time>
   <time name="total">   15.84   15.87</time>
   <energy>
    <i name="e_fr_energy">   -297.36461098 </i>
    <i name="e_wo_entrp">   -297.36461098 </i>
    <i name="e_0_energy">   -297.36461098 </i>
   </energy>
  </scstep>
  <scstep>
   <time name="dav">   13.32   13.35</time>
   <time name="total">   14.51   14.54</time>
   <energy>
    <i name="e_fr_energy">   -280.23984641 </i>
    <i name="e_wo_entrp">   -280.23984641 </i>
    <i name="e_0_energy">   -280.23984641 </i>
   </energy>
  </scstep>
  <scstep>
   <time name="dav">   14.17   14.19</time>
   <time name="total">   15.36   15.39</time>
   <energy>
    <i name="e_fr_energy">   -277.76416529 </i>
    <i name="e_wo_entrp">   -277.76416523 </i>
    <i name="e_0_energy">   -277.76416526 </i>
   </energy>
  </scstep>
  <scstep>
   <time name="dav">   14.29   14.32</time>
   <time name="total">   15.49   15.51</time>
   <energy>
    <i name="e_fr_energy">   -277.76833503 </i>
    <i name="e_wo_entrp">   -277.76833503 </i>
    <i name="e_0_energy">   -277.76833503 </i>
   </energy>
  </scstep>
  <scstep>
   <time name="dav">   14.75   14.78</time>
   <time name="total">   15.94   15.97</time>
   <energy>
    <i name="e_fr_energy">   -277.76495978 </i>
    <i name="e_wo_entrp">   -277.76495978 </i>
    <i name="e_0_energy">   -277.76495978 </i>
   </energy>
  </scstep>
  <scstep>
   <time name="dav">   14.29   14.32</time>
   <time name="total">   15.48   15.51</time>
   <energy>
    <i name="e_fr_energy">   -277.76817484 </i>
    <i name="e_wo_entrp">   -277.76817484 </i>
    <i name="e_0_energy">   -277.76817484 </i>
   </energy>
  </scstep>
  <scstep>
   <time name="dav">   14.54   14.57</time>
   <time name="total">   15.73   15.76</time>
   <energy>
    <i name="e_fr_energy">   -277.76862112 </i>
    <i name="e_wo_entrp">   -277.76862112 </i>
    <i name="e_0_energy">   -277.76862112 </i>
   </energy>
  </scstep>
  <scstep>
   <time name="dav">   15.68   15.70</time>
   <time name="total">   16.85   16.88</time>
   <energy>
    <i name="e_fr_energy">   -277.76852514 </i>
    <i name="e_wo_entrp">   -277.76852514 </i>
    <i name="e_0_energy">   -277.76852514 </i>
   </energy>
  </scstep>
  <scstep>
   <time name="dav">   14.98   15.01</time>
   <time name="total">   16.17   16.19</time>
   <energy>
    <i name="e_fr_energy">   -277.76849820 </i>
    <i name="e_wo_entrp">   -277.76849820 </i>
    <i name="e_0_energy">   -277.76849820 </i>
   </energy>
  </scstep>
  <scstep>
   <time name="dav">   14.29   14.31</time>
   <time name="total">   15.46   15.49</time>
   <energy>
    <i name="e_fr_energy">   -277.76850431 </i>
    <i name="e_wo_entrp">   -277.76850431 </i>
    <i name="e_0_energy">   -277.76850431 </i>
   </energy>
  </scstep>
  <scstep>
   <time name="dav">   14.34   14.37</time>
   <time name="total">   15.52   15.55</time>
   <energy>
    <i name="e_fr_energy">   -277.76850402 </i>
    <i name="e_wo_entrp">   -277.76850402 </i>
    <i name="e_0_energy">   -277.76850402 </i>
   </energy>
  </scstep>
  <scstep>
   <time name="dav">   15.01   15.04</time>
   <time name="total">   16.20   16.23</time>
   <energy>
    <i name="e_fr_energy">   -277.76850426 </i>
    <i name="e_wo_entrp">   -277.76850426 </i>
    <i name="e_0_energy">   -277.76850426 </i>
   </energy>
  </scstep>
  <scstep>
   <time name="dav">   14.32   14.35</time>
   <time name="total">   15.51   15.54</time>
   <energy>
    <i name="e_fr_energy">   -277.76850444 </i>
    <i name="e_wo_entrp">   -277.76850444 </i>
    <i name="e_0_energy">   -277.76850444 </i>
   </energy>
  </scstep>
  <scstep>
   <time name="dav">   13.88   13.90</time>
   <time name="total">   15.06   15.09</time>
   <energy>
    <i name="e_fr_energy">   -277.76850441 </i>
    <i name="e_wo_entrp">   -277.76850441 </i>
    <i name="e_0_energy">   -277.76850441 </i>
   </energy>
  </scstep>
  <scstep>
   <time name="dav">   10.26   10.27</time>
   <time name="total">   11.44   11.46</time>
   <energy>
    <i name="e_fr_energy">   -277.76850444 </i>
    <i name="e_wo_entrp">   -277.76850444 </i>
    <i name="e_0_energy">   -277.76850444 </i>
   </energy>
  </scstep>
  <scstep>
   <time name="dav">    9.80    9.81</time>
   <time name="total">   10.98   11.00</time>
   <energy>
    <i name="e_fr_energy">   -277.76850446 </i>
    <i name="e_wo_entrp">   -277.76850446 </i>
    <i name="e_0_energy">   -277.76850446 </i>
   </energy>
  </scstep>
  <scstep>
   <time name="dav">    9.57    9.59</time>
   <time name="total">   10.76   10.78</time>
   <energy>
    <i name="e_fr_energy">   -277.76850445 </i>
    <i name="e_wo_entrp">   -277.76850445 </i>
    <i name="e_0_energy">   -277.76850445 </i>
   </energy>
  </scstep>
  <scstep>
   <time name="dav">    9.79    9.80</time>
   <time name="total">   10.56   10.58</time>
   <energy>
    <i name="alphaZ">    214.09658884 </i>
    <i name="ewald">  -5218.82860767 </i>
    <i name="hartreedc">   -486.12725335 </i>
    <i name="XCdc">  -3511.70760580 </i>
    <i name="pawpsdc">  17714.26348958 </i>
    <i name="pawaedc"> -13730.58529624 </i>
    <i name="eentropy">     -0.00000000 </i>
    <i name="bandstr">    -22.27182944 </i>
    <i name="atom">   4763.39200965 </i>
    <i name="e_fr_energy">   -277.76850444 </i>
    <i name="e_wo_entrp">   -277.76850444 </i>
    <i name="e_0_energy">   -277.76850444 </i>
   </energy>
  </scstep>
  <structure>
   <crystal>
    <varray name="basis" >
     <v>      12.74739769       0.00000000       0.00000000 </v>
     <v>       0.00000000      12.74739769       0.00000000 </v>
     <v>       0.00000000       0.00000000      12.74739769 </v>
    </varray>
    <i name="volume">   2071.40301882 </i>
    <varray name="rec_basis" >
     <v>       0.07844738       0.00000000       0.00000000 </v>
     <v>       0.00000000       0.07844738       0.00000000 </v>
     <v>       0.00000000       0.00000000       0.07844738 </v>
    </varray>
   </crystal>
   <varray name="positions" >
    <v>       0.00000000       0.00000000       0.00000000 </v>
    <v>       0.50000000       0.00000000       0.00000000 </v>
    <v>       0.00000000       0.50000000       0.00000000 </v>
    <v>       0.50000000       0.50000000       0.00000000 </v>
    <v>       0.00000000       0.00000000       0.50000000 </v>
    <v>       0.50000000       0.00000000       0.50000000 </v>
    <v>       0.00000000       0.50000000       0.50000000 </v>
    <v>       0.50000000       0.50000000       0.50000000 </v>
    <v>       0.25140293       0.25140293       0.00000000 </v>
    <v>       0.74859707       0.25140293       0.00000000 </v>
    <v>       0.25140293       0.74859707       0.00000000 </v>
    <v>       0.74859707       0.74859707       0.00000000 </v>
    <v>       0.24957198       0.25012668       0.49944529 </v>
    <v>       0.74987332       0.25012668       0.50000000 </v>
    <v>       0.25012668       0.74987332       0.50000000 </v>
    <v>       0.74987332       0.74987332       0.50000000 </v>
    <v>       0.25140293       0.00000000       0.25140293 </v>
    <v>       0.74859707       0.00000000       0.25140293 </v>
    <v>       0.25012668       0.50000000       0.25012668 </v>
    <v>       0.74987332       0.50000000       0.25012668 </v>
    <v>       0.25140293       0.00000000       0.74859707 </v>
    <v>       0.74859707       0.00000000       0.74859707 </v>
    <v>       0.25012668       0.50000000       0.74987332 </v>
    <v>       0.74987332       0.50000000       0.74987332 </v>
    <v>       0.00000000       0.25140293       0.25140293 </v>
    <v>       0.50000000       0.25012668       0.25012668 </v>
    <v>       0.00000000       0.74859707       0.25140293 </v>
    <v>       0.50000000       0.74987332       0.25012668 </v>
    <v>       0.00000000       0.25140293       0.74859707 </v>
    <v>       0.50000000       0.25012668       0.74987332 </v>
    <v>       0.00000000       0.74859707       0.74859707 </v>
    <v>       0.50000000       0.74987332       0.74987332 </v>
    <v>       0.12960836       0.12960836       0.12960836 </v>
    <v>       0.62421357       0.12507203       0.12507203 </v>
    <v>       0.12507203       0.62421357       0.12507203 </v>
    <v>       0.62455273       0.62455273       0.12469540 </v>
    <v>       0.12507203       0.12507203       0.62421357 </v>
    <v>       0.62455273       0.12469540       0.62455273 </v>
    <v>       0.12469540       0.62455273       0.62455273 </v>
    <v>       0.62508239       0.62508239       0.62508239 </v>
    <v>       0.37578643       0.12507203       0.12507203 </v>
    <v>       0.87039164       0.12960836       0.12960836 </v>
    <v>       0.37544727       0.62455273       0.12469540 </v>
    <v>       0.87492797       0.62421357       0.12507203 </v>
    <v>       0.37544727       0.12469540       0.62455273 </v>
    <v>       0.87492797       0.12507203       0.62421357 </v>
    <v>       0.37491761       0.62508239       0.62508239 </v>
    <v>       0.87530460       0.62455273       0.62455273 </v>
    <v>       0.12507203       0.37578643       0.12507203 </v>
    <v>       0.62455273       0.37544727       0.12469540 </v>
    <v>       0.12960836       0.87039164       0.12960836 </v>
    <v>       0.62421357       0.87492797       0.12507203 </v>
    <v>       0.12469540       0.37544727       0.62455273 </v>
    <v>       0.62508239       0.37491761       0.62508239 </v>
    <v>       0.12507203       0.87492797       0.62421357 </v>
    <v>       0.62455273       0.87530460       0.62455273 </v>
    <v>       0.37544727       0.37544727       0.12469540 </v>
    <v>       0.87492797       0.37578643       0.12507203 </v>
    <v>       0.37578643       0.87492797       0.12507203 </v>
    <v>       0.87039164       0.87039164       0.12960836 </v>
    <v>       0.37491761       0.37491761       0.62508239 </v>
    <v>       0.87530460       0.37544727       0.62455273 </v>
    <v>       0.37544727       0.87530460       0.62455273 </v>
    <v>       0.87492797       0.87492797       0.62421357 </v>
    <v>       0.12507203       0.12507203       0.37578643 </v>
    <v>       0.62455273       0.12469540       0.37544727 </v>
    <v>       0.12469540       0.62455273       0.37544727 </v>
    <v>       0.62508239       0.62508239       0.37491761 </v>
    <v>       0.12960836       0.12960836       0.87039164 </v>
    <v>       0.62421357       0.12507203       0.87492797 </v>
    <v>       0.12507203       0.62421357       0.87492797 </v>
    <v>       0.62455273       0.62455273       0.87530460 </v>
    <v>       0.37544727       0.12469540       0.37544727 </v>
    <v>       0.87492797       0.12507203       0.37578643 </v>
    <v>       0.37491761       0.62508239       0.37491761 </v>
    <v>       0.87530460       0.62455273       0.37544727 </v>
    <v>       0.37578643       0.12507203       0.87492797 </v>
    <v>       0.87039164       0.12960836       0.87039164 </v>
    <v>       0.37544727       0.62455273       0.87530460 </v>
    <v>       0.87492797       0.62421357       0.87492797 </v>
    <v>       0.12469540       0.37544727       0.37544727 </v>
    <v>       0.62508239       0.37491761       0.37491761 </v>
    <v>       0.12507203       0.87492797       0.37578643 </v>
    <v>       0.62455273       0.87530460       0.37544727 </v>
    <v>       0.12507203       0.37578643       0.87492797 </v>
    <v>       0.62455273       0.37544727       0.87530460 </v>
    <v>       0.12960836       0.87039164       0.87039164 </v>
    <v>       0.62421357       0.87492797       0.87492797 </v>
    <v>       0.37491761       0.37491761       0.37491761 </v>
    <v>       0.87530460       0.37544727       0.37544727 </v>
    <v>       0.37544727       0.87530460       0.37544727 </v>
    <v>       0.87492797       0.87492797       0.37578643 </v>
    <v>       0.37544727       0.37544727       0.87530460 </v>
    <v>       0.87492797       0.37578643       0.87492797 </v>
    <v>       0.37578643       0.87492797       0.87492797 </v>
    <v>       0.87039164       0.87039164       0.87039164 </v>
   </varray>
  </structure>
  <varray name="forces" >
   <v>       0.00102363      -0.00023838       0.00008423 </v>
   <v>       0.00081142       0.00031395       0.00009056 </v>
   <v>       0.00091065       0.00031953       0.00009024 </v>
   <v>       0.00103902      -0.00027309       0.00033237 </v>
   <v>      -0.00073038      -0.00238210       0.00165329 </v>
   <v>      -0.00055679       0.00242425       0.00152441 </v>
   <v>      -0.00078329       0.00241089       0.00152941 </v>
   <v>      -0.00068116      -0.00238602       0.00165643 </v>
   <v>       0.00531443       0.00638024      -0.00243212 </v>
   <v>      -0.01094324       0.00620295      -0.00489372 </v>
   <v>       0.00417733      -0.00643684      -0.00489377 </v>
   <v>      -0.00848159      -0.00629866      -0.00235976 </v>
   <v>       0.03655825      -0.00307981       0.03945034 </v>
   <v>       0.00135890      -0.00346083      -0.00119110 </v>
   <v>      -0.00438438       0.00346093      -0.00119117 </v>
   <v>      -0.00107519       0.00341201      -0.00234556 </v>
   <v>       0.00791182      -0.00240664       0.00597584 </v>
   <v>      -0.00631290      -0.00027417       0.00744381 </v>
   <v>      -0.00183332       0.00242111      -0.00392462 </v>
   <v>       0.00351404       0.00032208      -0.00235098 </v>
   <v>       0.00783917       0.00252668      -0.00675264 </v>
   <v>      -0.00627675       0.00030663      -0.00518598 </v>
   <v>      -0.00187286      -0.00238817       0.00300556 </v>
   <v>       0.00355469      -0.00028190       0.00453003 </v>
   <v>      -0.00303414       0.00642382       0.00353730 </v>
   <v>       0.00194270      -0.00345341      -0.00149605 </v>
   <v>       0.00079576      -0.00637881       0.00718672 </v>
   <v>       0.00139375       0.00341917      -0.00207353 </v>
   <v>       0.00190618       0.00635544      -0.00431969 </v>
   <v>      -0.00286049      -0.00348757       0.00058216 </v>
   <v>       0.00137564      -0.00634230      -0.00492747 </v>
   <v>       0.00078848       0.00345957       0.00425117 </v>
   <v>      -0.01533636      -0.01465661      -0.01417384 </v>
   <v>      -0.00138882       0.00054005       0.00067746 </v>
   <v>       0.00075117      -0.00172141       0.00083222 </v>
   <v>      -0.00037437      -0.00049177      -0.00022655 </v>
   <v>      -0.00142980       0.00050535      -0.00360260 </v>
   <v>       0.00016823      -0.00059228      -0.00093169 </v>
   <v>      -0.00106142      -0.00048487      -0.00118805 </v>
   <v>      -0.00060082      -0.00073846      -0.00063457 </v>
   <v>       0.00121877       0.00010462       0.00083274 </v>
   <v>       0.01554855      -0.01391773      -0.01413839 </v>
   <v>      -0.00013233      -0.00092005       0.00020778 </v>
   <v>      -0.00034775      -0.00156629       0.00069719 </v>
   <v>      -0.00629277       0.00453265      -0.00727849 </v>
   <v>      -0.00016669       0.00011909      -0.00196696 </v>
   <v>       0.00079463      -0.00058226      -0.00101939 </v>
   <v>       0.00088026      -0.00091513      -0.00113927 </v>
   <v>       0.00003182       0.00132115       0.00116398 </v>
   <v>      -0.00038154       0.00051435      -0.00022561 </v>
   <v>      -0.01463040       0.01505775      -0.01451301 </v>
   <v>      -0.00140070      -0.00055894       0.00068105 </v>
   <v>      -0.00231380       0.00047801      -0.00244327 </v>
   <v>      -0.00025307       0.00115154      -0.00136629 </v>
   <v>      -0.00025956      -0.00050783      -0.00234200 </v>
   <v>      -0.00017484       0.00018154      -0.00020161 </v>
   <v>       0.00011707       0.00089028      -0.00002446 </v>
   <v>       0.00022321       0.00066084       0.00126791 </v>
   <v>       0.00095617      -0.00007134       0.00108350 </v>
   <v>       0.01499337       0.01481841      -0.01467940 </v>
   <v>      -0.00606077      -0.00410775      -0.00790936 </v>
   <v>       0.00066803       0.00087855      -0.00088364 </v>
   <v>       0.00040478      -0.00004172      -0.00062192 </v>
   <v>       0.00006536      -0.00008608      -0.00222593 </v>
   <v>      -0.00684502      -0.00494119      -0.00577520 </v>
   <v>      -0.00010944      -0.00000218       0.00007461 </v>
   <v>      -0.00047126      -0.00076150       0.00032968 </v>
   <v>      -0.00032773      -0.00046165       0.00022937 </v>
   <v>      -0.01525399      -0.01457496       0.01521884 </v>
   <v>      -0.00085283      -0.00029287       0.00017755 </v>
   <v>      -0.00008835      -0.00118246       0.00002206 </v>
   <v>      -0.00029374      -0.00041043       0.00050947 </v>
   <v>      -0.00153478      -0.00030060      -0.00145376 </v>
   <v>       0.00010404       0.00083641       0.00106413 </v>
   <v>       0.00013583      -0.00088145       0.00015565 </v>
   <v>       0.00067534      -0.00062978       0.00073934 </v>
   <v>       0.00109158       0.00023079       0.00013589 </v>
   <v>       0.01500426      -0.01481911       0.01506193 </v>
   <v>       0.00066505      -0.00029200       0.00062335 </v>
   <v>      -0.00038047      -0.00156313      -0.00038760 </v>
   <v>      -0.00750357       0.00559345      -0.00661447 </v>
   <v>      -0.00054883       0.00049186       0.00050522 </v>
   <v>       0.00045852      -0.00024030       0.00144192 </v>
   <v>       0.00011252      -0.00002543      -0.00020001 </v>
   <v>       0.00016013       0.00119172      -0.00019294 </v>
   <v>       0.00024941       0.00130646       0.00105554 </v>
   <v>      -0.01552627       0.01451031       0.01543554 </v>
   <v>      -0.00139486      -0.00059409      -0.00036955 </v>
   <v>      -0.00106077       0.00086314      -0.00104664 </v>
   <v>       0.00105359       0.00017782       0.00000672 </v>
   <v>      -0.00029560       0.00034471      -0.00025379 </v>
   <v>      -0.00024107      -0.00038882       0.00178588 </v>
   <v>      -0.00005589       0.00071596       0.00096811 </v>
   <v>      -0.00037076       0.00155543      -0.00038915 </v>
   <v>       0.00184373      -0.00066260      -0.00020407 </v>
   <v>       0.01499626       0.01482233       0.01505311 </v>
  </varray>
  <varray name="stress" >
   <v>      -1.01814456       0.00004764       0.00075552 </v>
   <v>       0.00004782      -1.01800109      -0.00005819 </v>
   <v>       0.00075578      -0.00005843      -1.01836544 </v>
  </varray>
  <energy>
   <i name="e_fr_energy">   -277.76850444 </i>
   <i name="e_wo_entrp">   -277.76850444 </i>
   <i name="e_0_energy">     -0.00000000 </i>
  </energy>
  <time name="totalsc">  356.70  357.37</time>
  <eigenvalues>
   <array>
    <dimension dim="1">band</dimension>
    <dimension dim="2">kpoint</dimension>
    <dimension dim="3">spin</dimension>
    <field>eigene</field>
    <field>occ</field>
    <set>
     <set comment="spin 1">
      <set comment="kpoint 1">
       <r>   -5.4896    1.0000 </r>
       <r>   -4.7781    1.0000 </r>
       <r>   -4.7780    1.0000 </r>
       <r>   -4.7690    1.0000 </r>
       <r>   -4.7689    1.0000 </r>
       <r>   -4.7688    1.0000 </r>
       <r>   -4.7409    1.0000 </r>
       <r>   -4.2067    1.0000 </r>
       <r>   -4.2061    1.0000 </r>
       <r>   -4.2008    1.0000 </r>
       <r>   -4.2005    1.0000 </r>
       <r>   -4.2000    1.0000 </r>
       <r>   -4.1957    1.0000 </r>
       <r>   -4.1952    1.0000 </r>
       <r>   -4.1947    1.0000 </r>
       <r>   -4.1856    1.0000 </r>
       <r>   -4.1854    1.0000 </r>
       <r>   -4.1848    1.0000 </r>
       <r>   -4.1421    1.0000 </r>
       <r>   -4.0661    1.0000 </r>
       <r>   -4.0661    1.0000 </r>
       <r>   -4.0661    1.0000 </r>
       <r>   -4.0495    1.0000 </r>
       <r>   -3.5079    1.0000 </r>
       <r>   -3.5079    1.0000 </r>
       <r>   -3.4982    1.0000 </r>
       <r>   -3.4676    1.0000 </r>
       <r>   -3.4673    1.0000 </r>
       <r>   -3.4604    1.0000 </r>
       <r>   -3.4601    1.0000 </r>
       <r>   -3.4598    1.0000 </r>
       <r>   -3.3908    1.0000 </r>
       <r>   -1.1929    1.0000 </r>
       <r>   -1.1580    1.0000 </r>
       <r>   -1.1580    1.0000 </r>
       <r>   -1.1580    1.0000 </r>
       <r>   -0.8439    1.0000 </r>
       <r>   -0.8439    1.0000 </r>
       <r>   -0.8439    1.0000 </r>
       <r>   -0.0448    1.0000 </r>
       <r>   -0.0447    1.0000 </r>
       <r>   -0.0442    1.0000 </r>
       <r>   -0.0339    1.0000 </r>
       <r>   -0.0338    1.0000 </r>
       <r>   -0.0335    1.0000 </r>
       <r>   -0.0259    1.0000 </r>
       <r>   -0.0257    1.0000 </r>
       <r>   -0.0256    1.0000 </r>
       <r>   -0.0008    1.0000 </r>
       <r>   -0.0005    1.0000 </r>
       <r>   -0.0002    1.0000 </r>
       <r>    0.0104    1.0000 </r>
       <r>    0.0107    1.0000 </r>
       <r>    0.0109    1.0000 </r>
       <r>    0.0112    1.0000 </r>
       <r>    0.0115    1.0000 </r>
       <r>    0.0136    1.0000 </r>
       <r>    0.0142    1.0000 </r>
       <r>    0.0149    1.0000 </r>
       <r>    0.0536    1.0000 </r>
       <r>    0.0539    1.0000 </r>
       <r>    0.0544    1.0000 </r>
       <r>    0.0683    1.0000 </r>
       <r>    0.7622    1.0000 </r>
       <r>    0.7627    1.0000 </r>
       <r>    0.7693    1.0000 </r>
       <r>    0.7834    1.0000 </r>
       <r>    0.7838    1.0000 </r>
       <r>    0.7841    1.0000 </r>
       <r>    0.8013    1.0000 </r>
       <r>    0.8017    1.0000 </r>
       <r>    0.8017    1.0000 </r>
       <r>    0.8019    1.0000 </r>
       <r>    0.8020    1.0000 </r>
       <r>    0.8024    1.0000 </r>
       <r>    0.9184    1.0000 </r>
       <r>    0.9352    1.0000 </r>
       <r>    0.9355    1.0000 </r>
       <r>    0.9358    1.0000 </r>
       <r>    0.9577    1.0000 </r>
       <r>    0.9581    1.0000 </r>
       <r>    1.1732    1.0000 </r>
       <r>    1.1735    1.0000 </r>
       <r>    1.1738    1.0000 </r>
       <r>    1.1739    1.0000 </r>
       <r>    1.1746    1.0000 </r>
       <r>    1.2241    1.0000 </r>
       <r>    1.6500    1.0000 </r>
       <r>    1.6500    1.0000 </r>
       <r>    1.6500    1.0000 </r>
       <r>    1.6527    1.0000 </r>
       <r>    1.6527    1.0000 </r>
       <r>    1.6527    1.0000 </r>
       <r>    2.3237    1.0000 </r>
       <r>    2.3239    1.0000 </r>
       <r>    2.3245    1.0000 </r>
       <r>    2.3308    1.0000 </r>
       <r>    2.3311    1.0000 </r>
       <r>    2.3312    1.0000 </r>
       <r>    2.3313    1.0000 </r>
       <r>    2.3317    1.0000 </r>
       <r>    2.3319    1.0000 </r>
       <r>    2.3807    1.0000 </r>
       <r>    2.3812    1.0000 </r>
       <r>    2.3813    1.0000 </r>
       <r>    2.7665    1.0000 </r>
       <r>    2.7667    1.0000 </r>
       <r>    2.7670    1.0000 </r>
       <r>    2.7791    1.0000 </r>
       <r>    2.7793    1.0000 </r>
       <r>    2.7796    1.0000 </r>
       <r>    2.7879    1.0000 </r>
       <r>    2.7951    1.0000 </r>
       <r>    2.7952    1.0000 </r>
       <r>    2.8218    1.0000 </r>
       <r>    2.8220    1.0000 </r>
       <r>    2.8224    1.0000 </r>
       <r>    2.8683    1.0000 </r>
       <r>    2.8683    1.0000 </r>
       <r>    2.8949    1.0000 </r>
       <r>    2.8949    1.0000 </r>
       <r>    2.8949    1.0000 </r>
       <r>    2.9792    1.0000 </r>
       <r>    2.9794    1.0000 </r>
       <r>    2.9794    1.0000 </r>
       <r>    3.6211    1.0000 </r>
       <r>    3.6212    1.0000 </r>
       <r>    3.6212    1.0000 </r>
       <r>    3.7507    0.0000 </r>
       <r>    3.7931    0.0000 </r>
       <r>    3.7931    0.0000 </r>
       <r>    3.9521    0.0000 </r>
       <r>    3.9521    0.0000 </r>
       <r>    3.9522    0.0000 </r>
       <r>    4.7270    0.0000 </r>
       <r>    4.7271    0.0000 </r>
       <r>    4.7591    0.0000 </r>
       <r>    4.7591    0.0000 </r>
       <r>    4.7592    0.0000 </r>
       <r>    4.7621    0.0000 </r>
       <r>    4.8108    0.0000 </r>
       <r>    4.8108    0.0000 </r>
       <r>    4.8109    0.0000 </r>
       <r>    4.8421    0.0000 </r>
       <r>    5.3097    0.0000 </r>
       <r>    5.3097    0.0000 </r>
       <r>    5.3099    0.0000 </r>
       <r>    5.3202    0.0000 </r>
       <r>    5.3203    0.0000 </r>
       <r>    5.3251    0.0000 </r>
       <r>    5.3252    0.0000 </r>
       <r>    5.3253    0.0000 </r>
       <r>    5.3333    0.0000 </r>
       <r>    5.3648    0.0000 </r>
       <r>    5.3649    0.0000 </r>
       <r>    5.3649    0.0000 </r>
       <r>    5.3731    0.0000 </r>
       <r>    5.3733    0.0000 </r>
       <r>    5.3733    0.0000 </r>
       <r>    5.3741    0.0000 </r>
       <r>    5.4336    0.0000 </r>
       <r>    5.4337    0.0000 </r>
       <r>    5.5274    0.0000 </r>
       <r>    6.0784    0.0000 </r>
       <r>    6.0784    0.0000 </r>
       <r>    6.0784    0.0000 </r>
       <r>    6.1002    0.0000 </r>
       <r>    6.1002    0.0000 </r>
       <r>    6.1002    0.0000 </r>
       <r>    6.1459    0.0000 </r>
       <r>    6.1463    0.0000 </r>
       <r>    6.1490    0.0000 </r>
       <r>    6.1490    0.0000 </r>
       <r>    6.1491    0.0000 </r>
       <r>    6.2471    0.0000 </r>
       <r>    6.2498    0.0000 </r>
       <r>    6.2569    0.0000 </r>
       <r>    6.2741    0.0000 </r>
      </set>
     </set>
    </set>
   </array>
  </eigenvalues>
  <separator name="orbital magnetization" >
   <v name="MAGDIPOLOUT">      0.00000000      0.00000000      0.00000000</v>
  </separator>
  <dos>
   <i name="efermi">      3.68119787 </i>
   <total>
    <array>
     <dimension dim="1">gridpoints</dimension>
     <dimension dim="2">spin</dimension>
     <field>energy</field>
     <field>total</field>
     <field>integrated</field>
     <set>
      <set comment="spin 1">
       <r>    -6.0778     0.0000     0.0000 </r>
       <r>    -6.0346     0.0000     0.0000 </r>
       <r>    -5.9915     0.0000     0.0000 </r>
       <r>    -5.9484     0.0000     0.0000 </r>
       <r>    -5.9052     0.0000     0.0000 </r>
       <r>    -5.8621     0.0000     0.0000 </r>
       <r>    -5.8190     0.0000     0.0000 </r>
       <r>    -5.7758     0.0000     0.0000 </r>
       <r>    -5.7327     0.0000     0.0000 </r>
       <r>    -5.6896     0.0000     0.0000 </r>
       <r>    -5.6464     0.0000     0.0000 </r>
       <r>    -5.6033     0.0000     0.0000 </r>
       <r>    -5.5602     0.0000     0.0000 </r>
       <r>    -5.5170     0.0024     0.0001 </r>
       <r>    -5.4739    45.7499     1.9735 </r>
       <r>    -5.4308     0.6154     2.0000 </r>
       <r>    -5.3876     0.0000     2.0000 </r>
       <r>    -5.3445     0.0000     2.0000 </r>
       <r>    -5.3014     0.0000     2.0000 </r>
       <r>    -5.2582     0.0000     2.0000 </r>
       <r>    -5.2151     0.0000     2.0000 </r>
       <r>    -5.1720     0.0000     2.0000 </r>
       <r>    -5.1288     0.0000     2.0000 </r>
       <r>    -5.0857     0.0000     2.0000 </r>
       <r>    -5.0426     0.0000     2.0000 </r>
       <r>    -4.9994     0.0000     2.0000 </r>
       <r>    -4.9563     0.0000     2.0000 </r>
       <r>    -4.9132     0.0000     2.0000 </r>
       <r>    -4.8700     0.0000     2.0000 </r>
       <r>    -4.8269     0.0000     2.0000 </r>
       <r>    -4.7838    21.8961     2.9445 </r>
       <r>    -4.7406   233.7378    13.0264 </r>
       <r>    -4.6975    22.5720    14.0000 </r>
       <r>    -4.6544     0.0000    14.0000 </r>
       <r>    -4.6112     0.0000    14.0000 </r>
       <r>    -4.5681     0.0000    14.0000 </r>
       <r>    -4.5250     0.0000    14.0000 </r>
       <r>    -4.4818     0.0000    14.0000 </r>
       <r>    -4.4387     0.0000    14.0000 </r>
       <r>    -4.3956     0.0000    14.0000 </r>
       <r>    -4.3524     0.0000    14.0000 </r>
       <r>    -4.3093     0.0000    14.0000 </r>
       <r>    -4.2662     0.0000    14.0000 </r>
       <r>    -4.2230     0.9835    14.0424 </r>
       <r>    -4.1799   475.7604    34.5636 </r>
       <r>    -4.1368    69.2725    37.5516 </r>
       <r>    -4.0936    10.4022    38.0003 </r>
       <r>    -4.0505   157.8587    44.8093 </r>
       <r>    -4.0074    27.6050    46.0000 </r>
       <r>    -3.9642     0.0000    46.0000 </r>
       <r>    -3.9211     0.0000    46.0000 </r>
       <r>    -3.8780     0.0000    46.0000 </r>
       <r>    -3.8348     0.0000    46.0000 </r>
       <r>    -3.7917     0.0000    46.0000 </r>
       <r>    -3.7486     0.0000    46.0000 </r>
       <r>    -3.7054     0.0000    46.0000 </r>
       <r>    -3.6623     0.0000    46.0000 </r>
       <r>    -3.6192     0.0000    46.0000 </r>
       <r>    -3.5760     0.0000    46.0000 </r>
       <r>    -3.5329     0.0187    46.0008 </r>
       <r>    -3.4898   133.2581    51.7487 </r>
       <r>    -3.4466   233.6131    61.8253 </r>
       <r>    -3.4035     5.7421    62.0729 </r>
       <r>    -3.3603    44.6764    64.0000 </r>
       <r>    -3.3172     0.0004    64.0000 </r>
       <r>    -3.2741     0.0000    64.0000 </r>
       <r>    -3.2309     0.0000    64.0000 </r>
       <r>    -3.1878     0.0000    64.0000 </r>
       <r>    -3.1447     0.0000    64.0000 </r>
       <r>    -3.1015     0.0000    64.0000 </r>
       <r>    -3.0584     0.0000    64.0000 </r>
       <r>    -3.0153     0.0000    64.0000 </r>
       <r>    -2.9721     0.0000    64.0000 </r>
       <r>    -2.9290     0.0000    64.0000 </r>
       <r>    -2.8859     0.0000    64.0000 </r>
       <r>    -2.8427     0.0000    64.0000 </r>
       <r>    -2.7996     0.0000    64.0000 </r>
       <r>    -2.7565     0.0000    64.0000 </r>
       <r>    -2.7133     0.0000    64.0000 </r>
       <r>    -2.6702     0.0000    64.0000 </r>
       <r>    -2.6271     0.0000    64.0000 </r>
       <r>    -2.5839     0.0000    64.0000 </r>
       <r>    -2.5408     0.0000    64.0000 </r>
       <r>    -2.4977     0.0000    64.0000 </r>
       <r>    -2.4545     0.0000    64.0000 </r>
       <r>    -2.4114     0.0000    64.0000 </r>
       <r>    -2.3683     0.0000    64.0000 </r>
       <r>    -2.3251     0.0000    64.0000 </r>
       <r>    -2.2820     0.0000    64.0000 </r>
       <r>    -2.2389     0.0000    64.0000 </r>
       <r>    -2.1957     0.0000    64.0000 </r>
       <r>    -2.1526     0.0000    64.0000 </r>
       <r>    -2.1095     0.0000    64.0000 </r>
       <r>    -2.0663     0.0000    64.0000 </r>
       <r>    -2.0232     0.0000    64.0000 </r>
       <r>    -1.9801     0.0000    64.0000 </r>
       <r>    -1.9369     0.0000    64.0000 </r>
       <r>    -1.8938     0.0000    64.0000 </r>
       <r>    -1.8507     0.0000    64.0000 </r>
       <r>    -1.8075     0.0000    64.0000 </r>
       <r>    -1.7644     0.0000    64.0000 </r>
       <r>    -1.7213     0.0000    64.0000 </r>
       <r>    -1.6781     0.0000    64.0000 </r>
       <r>    -1.6350     0.0000    64.0000 </r>
       <r>    -1.5919     0.0000    64.0000 </r>
       <r>    -1.5487     0.0000    64.0000 </r>
       <r>    -1.5056     0.0000    64.0000 </r>
       <r>    -1.4625     0.0000    64.0000 </r>
       <r>    -1.4193     0.0000    64.0000 </r>
       <r>    -1.3762     0.0000    64.0000 </r>
       <r>    -1.3331     0.0000    64.0000 </r>
       <r>    -1.2899     0.0000    64.0000 </r>
       <r>    -1.2468     0.0000    64.0000 </r>
       <r>    -1.2037     2.9626    64.1278 </r>
       <r>    -1.1605    93.4626    68.1592 </r>
       <r>    -1.1174    89.0454    72.0000 </r>
       <r>    -1.0743     0.0000    72.0000 </r>
       <r>    -1.0311     0.0000    72.0000 </r>
       <r>    -0.9880     0.0000    72.0000 </r>
       <r>    -0.9449     0.0000    72.0000 </r>
       <r>    -0.9017     0.0000    72.0000 </r>
       <r>    -0.8586     2.6338    72.1136 </r>
       <r>    -0.8155   136.4651    77.9998 </r>
       <r>    -0.7723     0.0040    78.0000 </r>
       <r>    -0.7292     0.0000    78.0000 </r>
       <r>    -0.6861     0.0000    78.0000 </r>
       <r>    -0.6429     0.0000    78.0000 </r>
       <r>    -0.5998     0.0000    78.0000 </r>
       <r>    -0.5567     0.0000    78.0000 </r>
       <r>    -0.5135     0.0000    78.0000 </r>
       <r>    -0.4704     0.0000    78.0000 </r>
       <r>    -0.4273     0.0000    78.0000 </r>
       <r>    -0.3841     0.0000    78.0000 </r>
       <r>    -0.3410     0.0000    78.0000 </r>
       <r>    -0.2979     0.0000    78.0000 </r>
       <r>    -0.2547     0.0000    78.0000 </r>
       <r>    -0.2116     0.0000    78.0000 </r>
       <r>    -0.1685     0.0000    78.0000 </r>
       <r>    -0.1253     0.0000    78.0000 </r>
       <r>    -0.0822     0.0000    78.0000 </r>
       <r>    -0.0391   144.2504    84.2220 </r>
       <r>     0.0041   425.0840   102.5574 </r>
       <r>     0.0472   381.5846   119.0165 </r>
       <r>     0.0903   161.8612   125.9981 </r>
       <r>     0.1335     0.0433   126.0000 </r>
       <r>     0.1766     0.0000   126.0000 </r>
       <r>     0.2197     0.0000   126.0000 </r>
       <r>     0.2629     0.0000   126.0000 </r>
       <r>     0.3060     0.0000   126.0000 </r>
       <r>     0.3491     0.0000   126.0000 </r>
       <r>     0.3923     0.0000   126.0000 </r>
       <r>     0.4354     0.0000   126.0000 </r>
       <r>     0.4785     0.0000   126.0000 </r>
       <r>     0.5217     0.0000   126.0000 </r>
       <r>     0.5648     0.0000   126.0000 </r>
       <r>     0.6079     0.0000   126.0000 </r>
       <r>     0.6511     0.0000   126.0000 </r>
       <r>     0.6942     0.0000   126.0000 </r>
       <r>     0.7373     0.0181   126.0008 </r>
       <r>     0.7805   180.8624   133.8020 </r>
       <r>     0.8236   375.2396   149.9874 </r>
       <r>     0.8667     0.2917   150.0000 </r>
       <r>     0.9099     5.2352   150.2258 </r>
       <r>     0.9530   201.9303   158.9358 </r>
       <r>     0.9961    71.0404   162.0000 </r>
       <r>     1.0393     0.0000   162.0000 </r>
       <r>     1.0824     0.0000   162.0000 </r>
       <r>     1.1255     0.0000   162.0000 </r>
       <r>     1.1687    54.2537   164.3402 </r>
       <r>     1.2118   179.4967   172.0825 </r>
       <r>     1.2549    44.4552   174.0000 </r>
       <r>     1.2981     0.0003   174.0000 </r>
       <r>     1.3412     0.0000   174.0000 </r>
       <r>     1.3843     0.0000   174.0000 </r>
       <r>     1.4275     0.0000   174.0000 </r>
       <r>     1.4706     0.0000   174.0000 </r>
       <r>     1.5137     0.0000   174.0000 </r>
       <r>     1.5569     0.0000   174.0000 </r>
       <r>     1.6000     0.0000   174.0000 </r>
       <r>     1.6431    35.3772   175.5259 </r>
       <r>     1.6863   242.8285   186.0000 </r>
       <r>     1.7294     0.0002   186.0000 </r>
       <r>     1.7725     0.0000   186.0000 </r>
       <r>     1.8157     0.0000   186.0000 </r>
       <r>     1.8588     0.0000   186.0000 </r>
       <r>     1.9019     0.0000   186.0000 </r>
       <r>     1.9451     0.0000   186.0000 </r>
       <r>     1.9882     0.0000   186.0000 </r>
       <r>     2.0313     0.0000   186.0000 </r>
       <r>     2.0745     0.0000   186.0000 </r>
       <r>     2.1176     0.0000   186.0000 </r>
       <r>     2.1607     0.0000   186.0000 </r>
       <r>     2.2039     0.0000   186.0000 </r>
       <r>     2.2470     0.0000   186.0000 </r>
       <r>     2.2901     0.0001   186.0000 </r>
       <r>     2.3333   294.8097   198.7162 </r>
       <r>     2.3764   158.1171   205.5363 </r>
       <r>     2.4195   103.4849   210.0000 </r>
       <r>     2.4627     0.0000   210.0000 </r>
       <r>     2.5058     0.0000   210.0000 </r>
       <r>     2.5489     0.0000   210.0000 </r>
       <r>     2.5921     0.0000   210.0000 </r>
       <r>     2.6352     0.0000   210.0000 </r>
       <r>     2.6783     0.0000   210.0000 </r>
       <r>     2.7215     0.0000   210.0000 </r>
       <r>     2.7646    55.5449   212.3958 </r>
       <r>     2.8077   361.1321   227.9727 </r>
       <r>     2.8509   140.3670   234.0273 </r>
       <r>     2.8940   154.6966   240.6999 </r>
       <r>     2.9371    76.5093   244.0000 </r>
       <r>     2.9803    76.7944   247.3124 </r>
       <r>     3.0234    62.3085   250.0000 </r>
       <r>     3.0665     0.0000   250.0000 </r>
       <r>     3.1097     0.0000   250.0000 </r>
       <r>     3.1528     0.0000   250.0000 </r>
       <r>     3.1959     0.0000   250.0000 </r>
       <r>     3.2391     0.0000   250.0000 </r>
       <r>     3.2822     0.0000   250.0000 </r>
       <r>     3.3253     0.0000   250.0000 </r>
       <r>     3.3685     0.0000   250.0000 </r>
       <r>     3.4116     0.0000   250.0000 </r>
       <r>     3.4547     0.0000   250.0000 </r>
       <r>     3.4979     0.0000   250.0000 </r>
       <r>     3.5410     0.0000   250.0000 </r>
       <r>     3.5841     0.0000   250.0000 </r>
       <r>     3.6273   112.2149   254.8402 </r>
       <r>     3.6704    26.8881   256.0000 </r>
       <r>     3.7135     0.0000   256.0000 </r>
       <r>     3.7567    37.1961   257.6044 </r>
       <r>     3.7998    86.0793   261.3173 </r>
       <r>     3.8429    15.8275   262.0000 </r>
       <r>     3.8861     0.0000   262.0000 </r>
       <r>     3.9292     0.0826   262.0036 </r>
       <r>     3.9723   138.7239   267.9872 </r>
       <r>     4.0155     0.2964   268.0000 </r>
       <r>     4.0586     0.0000   268.0000 </r>
       <r>     4.1017     0.0000   268.0000 </r>
       <r>     4.1449     0.0000   268.0000 </r>
       <r>     4.1880     0.0000   268.0000 </r>
       <r>     4.2312     0.0000   268.0000 </r>
       <r>     4.2743     0.0000   268.0000 </r>
       <r>     4.3174     0.0000   268.0000 </r>
       <r>     4.3606     0.0000   268.0000 </r>
       <r>     4.4037     0.0000   268.0000 </r>
       <r>     4.4468     0.0000   268.0000 </r>
       <r>     4.4900     0.0000   268.0000 </r>
       <r>     4.5331     0.0000   268.0000 </r>
       <r>     4.5762     0.0000   268.0000 </r>
       <r>     4.6194     0.0000   268.0000 </r>
       <r>     4.6625     0.0000   268.0000 </r>
       <r>     4.7056     0.1142   268.0049 </r>
       <r>     4.7488   103.7739   272.4811 </r>
       <r>     4.7919   174.8293   280.0221 </r>
       <r>     4.8350   145.8437   286.3128 </r>
       <r>     4.8782    39.1153   288.0000 </r>
       <r>     4.9213     0.0000   288.0000 </r>
       <r>     4.9644     0.0000   288.0000 </r>
       <r>     5.0076     0.0000   288.0000 </r>
       <r>     5.0507     0.0000   288.0000 </r>
       <r>     5.0938     0.0000   288.0000 </r>
       <r>     5.1370     0.0000   288.0000 </r>
       <r>     5.1801     0.0000   288.0000 </r>
       <r>     5.2232     0.0000   288.0000 </r>
       <r>     5.2664     0.0000   288.0000 </r>
       <r>     5.3095    75.1022   291.2394 </r>
       <r>     5.3526   348.1220   306.2552 </r>
       <r>     5.3958   318.5061   319.9934 </r>
       <r>     5.4389    71.5493   323.0796 </r>
       <r>     5.4820    21.3380   324.0000 </r>
       <r>     5.5252    17.3327   324.7476 </r>
       <r>     5.5683    29.0349   326.0000 </r>
       <r>     5.6114     0.0000   326.0000 </r>
       <r>     5.6546     0.0000   326.0000 </r>
       <r>     5.6977     0.0000   326.0000 </r>
       <r>     5.7408     0.0000   326.0000 </r>
       <r>     5.7840     0.0000   326.0000 </r>
       <r>     5.8271     0.0000   326.0000 </r>
       <r>     5.8702     0.0000   326.0000 </r>
       <r>     5.9134     0.0000   326.0000 </r>
       <r>     5.9565     0.0000   326.0000 </r>
       <r>     5.9996     0.0000   326.0000 </r>
       <r>     6.0428     0.0000   326.0000 </r>
       <r>     6.0859   121.9469   331.2600 </r>
       <r>     6.1290   157.3095   338.0453 </r>
       <r>     6.1722   230.7021   347.9963 </r>
       <r>     6.2153     0.0858   348.0000 </r>
       <r>     6.2584   112.6737   352.8600 </r>
       <r>     6.3016    72.7943   355.9999 </r>
       <r>     6.3447     0.0024   356.0000 </r>
       <r>     6.3878     0.0000   356.0000 </r>
       <r>     6.4310     0.0000   356.0000 </r>
       <r>     6.4741     0.0000   356.0000 </r>
       <r>     6.5172     0.0000   356.0000 </r>
       <r>     6.5604     0.0000   356.0000 </r>
       <r>     6.6035     0.0000   356.0000 </r>
       <r>     6.6466     0.0000   356.0000 </r>
       <r>     6.6898     0.0000   356.0000 </r>
       <r>     6.7329     0.0000   356.0000 </r>
       <r>     6.7760     0.0000   356.0000 </r>
       <r>     6.8192     0.0000   356.0000 </r>
       <r>     6.8623     0.0000   356.0000 </r>
      </set>
     </set>
    </array>
   </total>
  </dos>
 </calculation>
 <structure name="finalpos" >
  <crystal>
   <varray name="basis" >
    <v>      12.74739769       0.00000000       0.00000000 </v>
    <v>       0.00000000      12.74739769       0.00000000 </v>
    <v>       0.00000000       0.00000000      12.74739769 </v>
   </varray>
   <i name="volume">   2071.40301882 </i>
   <varray name="rec_basis" >
    <v>       0.07844738       0.00000000       0.00000000 </v>
    <v>       0.00000000       0.07844738       0.00000000 </v>
    <v>       0.00000000       0.00000000       0.07844738 </v>
   </varray>
  </crystal>
  <varray name="positions" >
   <v>       0.00000000       0.00000000       0.00000000 </v>
   <v>       0.50000000       0.00000000       0.00000000 </v>
   <v>       0.00000000       0.50000000       0.00000000 </v>
   <v>       0.50000000       0.50000000       0.00000000 </v>
   <v>       0.00000000       0.00000000       0.50000000 </v>
   <v>       0.50000000       0.00000000       0.50000000 </v>
   <v>       0.00000000       0.50000000       0.50000000 </v>
   <v>       0.50000000       0.50000000       0.50000000 </v>
   <v>       0.25140293       0.25140293       0.00000000 </v>
   <v>       0.74859707       0.25140293       0.00000000 </v>
   <v>       0.25140293       0.74859707       0.00000000 </v>
   <v>       0.74859707       0.74859707       0.00000000 </v>
   <v>       0.24957198       0.25012668       0.49944529 </v>
   <v>       0.74987332       0.25012668       0.50000000 </v>
   <v>       0.25012668       0.74987332       0.50000000 </v>
   <v>       0.74987332       0.74987332       0.50000000 </v>
   <v>       0.25140293       0.00000000       0.25140293 </v>
   <v>       0.74859707       0.00000000       0.25140293 </v>
   <v>       0.25012668       0.50000000       0.25012668 </v>
   <v>       0.74987332       0.50000000       0.25012668 </v>
   <v>       0.25140293       0.00000000       0.74859707 </v>
   <v>       0.74859707       0.00000000       0.74859707 </v>
   <v>       0.25012668       0.50000000       0.74987332 </v>
   <v>       0.74987332       0.50000000       0.74987332 </v>
   <v>       0.00000000       0.25140293       0.25140293 </v>
   <v>       0.50000000       0.25012668       0.25012668 </v>
   <v>       0.00000000       0.74859707       0.25140293 </v>
   <v>       0.50000000       0.74987332       0.25012668 </v>
   <v>       0.00000000       0.25140293       0.74859707 </v>
   <v>       0.50000000       0.25012668       0.74987332 </v>
   <v>       0.00000000       0.74859707       0.74859707 </v>
   <v>       0.50000000       0.74987332       0.74987332 </v>
   <v>       0.12960836       0.12960836       0.12960836 </v>
   <v>       0.62421357       0.12507203       0.12507203 </v>
   <v>       0.12507203       0.62421357       0.12507203 </v>
   <v>       0.62455273       0.62455273       0.12469540 </v>
   <v>       0.12507203       0.12507203       0.62421357 </v>
   <v>       0.62455273       0.12469540       0.62455273 </v>
   <v>       0.12469540       0.62455273       0.62455273 </v>
   <v>       0.62508239       0.62508239       0.62508239 </v>
   <v>       0.37578643       0.12507203       0.12507203 </v>
   <v>       0.87039164       0.12960836       0.12960836 </v>
   <v>       0.37544727       0.62455273       0.12469540 </v>
   <v>       0.87492797       0.62421357       0.12507203 </v>
   <v>       0.37544727       0.12469540       0.62455273 </v>
   <v>       0.87492797       0.12507203       0.62421357 </v>
   <v>       0.37491761       0.62508239       0.62508239 </v>
   <v>       0.87530460       0.62455273       0.62455273 </v>
   <v>       0.12507203       0.37578643       0.12507203 </v>
   <v>       0.62455273       0.37544727       0.12469540 </v>
   <v>       0.12960836       0.87039164       0.12960836 </v>
   <v>       0.62421357       0.87492797       0.12507203 </v>
   <v>       0.12469540       0.37544727       0.62455273 </v>
   <v>       0.62508239       0.37491761       0.62508239 </v>
   <v>       0.12507203       0.87492797       0.62421357 </v>
   <v>       0.62455273       0.87530460       0.62455273 </v>
   <v>       0.37544727       0.37544727       0.12469540 </v>
   <v>       0.87492797       0.37578643       0.12507203 </v>
   <v>       0.37578643       0.87492797       0.12507203 </v>
   <v>       0.87039164       0.87039164       0.12960836 </v>
   <v>       0.37491761       0.37491761       0.62508239 </v>
   <v>       0.87530460       0.37544727       0.62455273 </v>
   <v>       0.37544727       0.87530460       0.62455273 </v>
   <v>       0.87492797       0.87492797       0.62421357 </v>
   <v>       0.12507203       0.12507203       0.37578643 </v>
   <v>       0.62455273       0.12469540       0.37544727 </v>
   <v>       0.12469540       0.62455273       0.37544727 </v>
   <v>       0.62508239       0.62508239       0.37491761 </v>
   <v>       0.12960836       0.12960836       0.87039164 </v>
   <v>       0.62421357       0.12507203       0.87492797 </v>
   <v>       0.12507203       0.62421357       0.87492797 </v>
   <v>       0.62455273       0.62455273       0.87530460 </v>
   <v>       0.37544727       0.12469540       0.37544727 </v>
   <v>       0.87492797       0.12507203       0.37578643 </v>
   <v>       0.37491761       0.62508239       0.37491761 </v>
   <v>       0.87530460       0.62455273       0.37544727 </v>
   <v>       0.37578643       0.12507203       0.87492797 </v>
   <v>       0.87039164       0.12960836       0.87039164 </v>
   <v>       0.37544727       0.62455273       0.87530460 </v>
   <v>       0.87492797       0.62421357       0.87492797 </v>
   <v>       0.12469540       0.37544727       0.37544727 </v>
   <v>       0.62508239       0.37491761       0.37491761 </v>
   <v>       0.12507203       0.87492797       0.37578643 </v>
   <v>       0.62455273       0.87530460       0.37544727 </v>
   <v>       0.12507203       0.37578643       0.87492797 </v>
   <v>       0.62455273       0.37544727       0.87530460 </v>
   <v>       0.12960836       0.87039164       0.87039164 </v>
   <v>       0.62421357       0.87492797       0.87492797 </v>
   <v>       0.37491761       0.37491761       0.37491761 </v>
   <v>       0.87530460       0.37544727       0.37544727 </v>
   <v>       0.37544727       0.87530460       0.37544727 </v>
   <v>       0.87492797       0.87492797       0.37578643 </v>
   <v>       0.37544727       0.37544727       0.87530460 </v>
   <v>       0.87492797       0.37578643       0.87492797 </v>
   <v>       0.37578643       0.87492797       0.87492797 </v>
   <v>       0.87039164       0.87039164       0.87039164 </v>
  </varray>
 </structure>
</modeling>
