96   
2    

1    
  0.0100000000000000   0.0000000000000000   0.0000000000000000
  -0.0579990300    0.0000000000   -0.0000000000
   0.0028915600    0.0000000000   -0.0000000000
   0.0012561600    0.0000000000   -0.0000000000
   0.0064223200    0.0000000000   -0.0000000000
   0.0012561600    0.0000000000   -0.0000000000
   0.0064223200    0.0000000000   -0.0000000000
   0.0029425400    0.0000000000   -0.0000000000
   0.0028735600    0.0000000000   -0.0000000000
   0.0008092100    0.0034546200   -0.0000000000
   0.0008147400   -0.0034452200   -0.0000000000
   0.0008092100   -0.0034546200   -0.0000000000
   0.0008147400    0.0034452200   -0.0000000000
  -0.0013902800    0.0004100700   -0.0000000000
  -0.0013950600   -0.0004062600   -0.0000000000
  -0.0013902800   -0.0004100700   -0.0000000000
  -0.0013950600    0.0004062600   -0.0000000000
   0.0008092100    0.0000000000    0.0034546200
   0.0008147400    0.0000000000   -0.0034452200
  -0.0013902800    0.0000000000    0.0004100700
  -0.0013950600    0.0000000000   -0.0004062600
   0.0008092100    0.0000000000   -0.0034546200
   0.0008147400    0.0000000000    0.0034452200
  -0.0013902800    0.0000000000   -0.0004100700
  -0.0013950600    0.0000000000    0.0004062600
  -0.0021897300   -0.0000064000   -0.0000064000
  -0.0000536800   -0.0000012700   -0.0000012700
  -0.0021897300    0.0000064000   -0.0000064000
  -0.0000536800    0.0000012700   -0.0000012700
  -0.0021897300   -0.0000064000    0.0000064000
  -0.0000536800   -0.0000012700    0.0000012700
  -0.0021897300    0.0000064000    0.0000064000
  -0.0000536800    0.0000012700    0.0000012700
   0.0066274500    0.0038874800    0.0038874800
  -0.0006944300   -0.0000797200   -0.0000797200
   0.0006155800    0.0002337400   -0.0004574300
  -0.0006065500   -0.0004044500    0.0006241700
   0.0006155800   -0.0004574300    0.0002337400
  -0.0006065500    0.0006241700   -0.0004044500
   0.0002827100   -0.0001742000   -0.0001742000
  -0.0002138900   -0.0000116400   -0.0000116400
  -0.0006967500    0.0000704800    0.0000704800
   0.0065124700   -0.0037259000   -0.0037259000
  -0.0006094300    0.0003972500   -0.0006251500
   0.0006113700   -0.0002424400    0.0004465300
  -0.0006094300   -0.0006251500    0.0003972500
   0.0006113700    0.0004465300   -0.0002424400
  -0.0002184300    0.0000068300    0.0000068300
   0.0002673500    0.0001676100    0.0001676100
   0.0006155800   -0.0002337400   -0.0004574300
  -0.0006065500    0.0004044500    0.0006241700
   0.0066274500   -0.0038874800    0.0038874800
  -0.0006944300    0.0000797200   -0.0000797200
   0.0002827100    0.0001742000   -0.0001742000
  -0.0002138900    0.0000116400   -0.0000116400
   0.0006155800    0.0004574300    0.0002337400
  -0.0006065500   -0.0006241700   -0.0004044500
  -0.0006094300   -0.0003972500   -0.0006251500
   0.0006113700    0.0002424400    0.0004465300
  -0.0006967500   -0.0000704800    0.0000704800
   0.0065124700    0.0037259000   -0.0037259000
  -0.0002184300   -0.0000068300    0.0000068300
   0.0002673500   -0.0001676100    0.0001676100
  -0.0006094300    0.0006251500    0.0003972500
   0.0006113700   -0.0004465300   -0.0002424400
   0.0006155800   -0.0004574300   -0.0002337400
  -0.0006065500    0.0006241700    0.0004044500
   0.0002827100   -0.0001742000    0.0001742000
  -0.0002138900   -0.0000116400    0.0000116400
   0.0066274500    0.0038874800   -0.0038874800
  -0.0006944300   -0.0000797200    0.0000797200
   0.0006155800    0.0002337400    0.0004574300
  -0.0006065500   -0.0004044500   -0.0006241700
  -0.0006094300   -0.0006251500   -0.0003972500
   0.0006113700    0.0004465300    0.0002424400
  -0.0002184300    0.0000068300   -0.0000068300
   0.0002673500    0.0001676100   -0.0001676100
  -0.0006967500    0.0000704800   -0.0000704800
   0.0065124700   -0.0037259000    0.0037259000
  -0.0006094300    0.0003972500    0.0006251500
   0.0006113700   -0.0002424400   -0.0004465300
   0.0002827100    0.0001742000    0.0001742000
  -0.0002138900    0.0000116400    0.0000116400
   0.0006155800    0.0004574300   -0.0002337400
  -0.0006065500   -0.0006241700    0.0004044500
   0.0006155800   -0.0002337400    0.0004574300
  -0.0006065500    0.0004044500   -0.0006241700
   0.0066274500   -0.0038874800   -0.0038874800
  -0.0006944300    0.0000797200    0.0000797200
  -0.0002184300   -0.0000068300   -0.0000068300
   0.0002673500   -0.0001676100   -0.0001676100
  -0.0006094300    0.0006251500   -0.0003972500
   0.0006113700   -0.0004465300    0.0002424400
  -0.0006094300   -0.0003972500    0.0006251500
   0.0006113700    0.0002424400   -0.0004465300
  -0.0006967500   -0.0000704800   -0.0000704800
   0.0065124700    0.0037259000    0.0037259000

33   
  0.0100000000000000   0.0000000000000000   0.0000000000000000
   0.0065099800    0.0037350100    0.0037350100
  -0.0006960200    0.0002386600    0.0002386600
   0.0006148800   -0.0000749600   -0.0004497500
  -0.0006078900   -0.0003967700   -0.0001680400
   0.0006148800   -0.0004497500   -0.0000749600
  -0.0006078900   -0.0001680400   -0.0003967700
   0.0002761000    0.0006254900    0.0006254900
  -0.0002170800   -0.0000078800   -0.0000078800
   0.0066272800    0.0038770400   -0.0038770400
  -0.0006959600    0.0002370400   -0.0002370400
   0.0006102600   -0.0000747200    0.0004530700
  -0.0006094400   -0.0004040500    0.0001734600
   0.0006102600   -0.0004530700    0.0000747200
  -0.0006094400   -0.0001734600    0.0004040500
   0.0002724800    0.0006232000   -0.0006232000
  -0.0002170900   -0.0000109300    0.0000109300
   0.0066272800   -0.0038770400    0.0038770400
  -0.0006959600   -0.0002370400    0.0002370400
   0.0006102600    0.0000747200   -0.0004530700
  -0.0006094400    0.0004040500   -0.0001734600
   0.0006102600    0.0004530700   -0.0000747200
  -0.0006094400    0.0001734600   -0.0004040500
   0.0002724800   -0.0006232000    0.0006232000
  -0.0002170900    0.0000109300   -0.0000109300
   0.0065099800   -0.0037350100   -0.0037350100
  -0.0006960200   -0.0002386600   -0.0002386600
   0.0006148800    0.0000749600    0.0004497500
  -0.0006078900    0.0003967700    0.0001680400
   0.0006148800    0.0004497500    0.0000749600
  -0.0006078900    0.0001680400    0.0003967700
   0.0002761000   -0.0006254900   -0.0006254900
  -0.0002170800    0.0000078800    0.0000078800
  -0.0429854800   -0.0000000000    0.0000000000
   0.0005001700   -0.0000000000    0.0000000000
  -0.0000634600   -0.0000000000    0.0000000000
   0.0000500500   -0.0000000000    0.0000000000
  -0.0000634600   -0.0000000000    0.0000000000
   0.0000500500   -0.0000000000    0.0000000000
  -0.0016407100   -0.0000000000    0.0000000000
   0.0001825700   -0.0000000000    0.0000000000
   0.0102728800   -0.0000000000    0.0000000000
   0.0100187100   -0.0000000000    0.0000000000
   0.0000170400   -0.0000000000    0.0000000000
   0.0000135700   -0.0000000000    0.0000000000
   0.0000170400   -0.0000000000    0.0000000000
   0.0000135700   -0.0000000000    0.0000000000
   0.0007193300   -0.0000000000    0.0000000000
   0.0007189400   -0.0000000000    0.0000000000
  -0.0026830300   -0.0000180700    0.0013643200
   0.0002788500    0.0000013600   -0.0003504500
  -0.0026830300    0.0000180700   -0.0013643200
   0.0002788500   -0.0000013600    0.0003504500
  -0.0006095800    0.0000007700   -0.0003504300
   0.0000813300   -0.0000017000    0.0000825900
  -0.0006095800   -0.0000007700    0.0003504300
   0.0000813300    0.0000017000   -0.0000825900
   0.0010060100    0.0010423600    0.0007048500
   0.0010038100   -0.0010411900    0.0007097400
   0.0010060100   -0.0010423600   -0.0007048500
   0.0010038100    0.0010411900   -0.0007097400
   0.0002617900   -0.0003425500   -0.0001344800
   0.0002601100    0.0003430000   -0.0001359100
   0.0002617900    0.0003425500    0.0001344800
   0.0002601100   -0.0003430000    0.0001359100
  -0.0026830300    0.0013643200   -0.0000180700
   0.0002788500   -0.0003504500    0.0000013600
  -0.0006095800   -0.0003504300    0.0000007700
   0.0000813300    0.0000825900   -0.0000017000
  -0.0026830300   -0.0013643200    0.0000180700
   0.0002788500    0.0003504500   -0.0000013600
  -0.0006095800    0.0003504300   -0.0000007700
   0.0000813300   -0.0000825900    0.0000017000
   0.0010060100    0.0007048500    0.0010423600
   0.0010038100    0.0007097400   -0.0010411900
   0.0002617900   -0.0001344800   -0.0003425500
   0.0002601100   -0.0001359100    0.0003430000
   0.0010060100   -0.0007048500   -0.0010423600
   0.0010038100   -0.0007097400    0.0010411900
   0.0002617900    0.0001344800    0.0003425500
   0.0002601100    0.0001359100   -0.0003430000
  -0.0020540100   -0.0007060400   -0.0007060400
   0.0001953500    0.0001353200    0.0001353200
  -0.0020563300   -0.0007085500    0.0007085500
   0.0001941400    0.0001350600   -0.0001350600
  -0.0020563300    0.0007085500   -0.0007085500
   0.0001941400   -0.0001350600    0.0001350600
  -0.0020540100    0.0007060400    0.0007060400
   0.0001953500   -0.0001353200   -0.0001353200
  -0.0001649200    0.0000945100    0.0000945100
   0.0020325000   -0.0004789400   -0.0004789400
   0.0020352800   -0.0004736100    0.0004736100
  -0.0001663300    0.0000945800   -0.0000945800
   0.0020352800    0.0004736100   -0.0004736100
  -0.0001663300   -0.0000945800    0.0000945800
  -0.0001649200   -0.0000945100   -0.0000945100
   0.0020325000    0.0004789400    0.0004789400
