96   
20   

1    
  0.0100000000000000   0.0000000000000000   0.0000000000000000
  -0.0739066600   -0.0000000000    0.0000000000
   0.0015681800    0.0023598000    0.0000000000
   0.0015681800   -0.0000000000    0.0023598000
  -0.0008770300   -0.0001030700   -0.0001030700
  -0.0003017800   -0.0000000000    0.0000000000
   0.0033712500    0.0037837400    0.0000000000
   0.0015681800   -0.0000000000   -0.0023598000
  -0.0008770300   -0.0001030700    0.0001030700
  -0.0003017800   -0.0000000000    0.0000000000
   0.0015681800   -0.0023598000    0.0000000000
   0.0033712500   -0.0000000000    0.0037837400
  -0.0008770300    0.0001030700   -0.0001030700
   0.0000487600   -0.0000000000    0.0000000000
   0.0033712500   -0.0037837400    0.0000000000
   0.0033712500   -0.0000000000   -0.0037837400
  -0.0008770300    0.0001030700    0.0001030700
   0.0007097500   -0.0000000000    0.0000000000
   0.0017660800   -0.0025520300    0.0000000000
   0.0017660800   -0.0000000000   -0.0025520300
   0.0002496500    0.0035166800    0.0035166800
   0.0022074300   -0.0000000000    0.0000000000
  -0.0036617900    0.0032514800    0.0000000000
   0.0017660800   -0.0000000000    0.0025520300
   0.0002496500    0.0035166800   -0.0035166800
   0.0022074300   -0.0000000000    0.0000000000
   0.0017660800    0.0025520300    0.0000000000
  -0.0036617900   -0.0000000000    0.0032514800
   0.0002496500   -0.0035166800    0.0035166800
   0.0003449200   -0.0000000000    0.0000000000
  -0.0036617900   -0.0032514800    0.0000000000
  -0.0036617900   -0.0000000000   -0.0032514800
   0.0002496500   -0.0035166800   -0.0035166800
   0.0096036000    0.0092908600    0.0092908600
  -0.0004453700    0.0028038400    0.0028038400
   0.0032086300   -0.0001321400    0.0025028100
   0.0011885600    0.0013747400    0.0031297500
   0.0032086300    0.0025028100   -0.0001321400
   0.0011885600    0.0031297500    0.0013747400
   0.0039168800    0.0016337300    0.0016337300
  -0.0001580700    0.0000416500    0.0000416500
   0.0032086300    0.0025028100    0.0001321400
   0.0011885600    0.0031297500   -0.0013747400
   0.0039168800    0.0016337300   -0.0016337300
  -0.0001580700    0.0000416500   -0.0000416500
   0.0096036000    0.0092908600   -0.0092908600
  -0.0004453700    0.0028038400   -0.0028038400
   0.0032086300   -0.0001321400   -0.0025028100
   0.0011885600    0.0013747400   -0.0031297500
   0.0032086300    0.0001321400    0.0025028100
   0.0011885600   -0.0013747400    0.0031297500
   0.0096036000   -0.0092908600    0.0092908600
  -0.0004453700   -0.0028038400    0.0028038400
   0.0039168800   -0.0016337300    0.0016337300
  -0.0001580700   -0.0000416500    0.0000416500
   0.0032086300   -0.0025028100   -0.0001321400
   0.0011885600   -0.0031297500    0.0013747400
   0.0039168800   -0.0016337300   -0.0016337300
  -0.0001580700   -0.0000416500   -0.0000416500
   0.0032086300   -0.0025028100    0.0001321400
   0.0011885600   -0.0031297500   -0.0013747400
   0.0032086300    0.0001321400   -0.0025028100
   0.0011885600   -0.0013747400   -0.0031297500
   0.0096036000   -0.0092908600   -0.0092908600
  -0.0004453700   -0.0028038400   -0.0028038400
  -0.0006109300    0.0027780400    0.0027780400
   0.0061215700   -0.0057055600   -0.0057055600
  -0.0019560900    0.0017718600    0.0043339600
  -0.0023756600    0.0002988800    0.0030783800
  -0.0019560900    0.0043339600    0.0017718600
  -0.0023756600    0.0030783800    0.0002988800
  -0.0001742200   -0.0000246900   -0.0000246900
  -0.0035527200    0.0015109700    0.0015109700
  -0.0019560900    0.0043339600   -0.0017718600
  -0.0023756600    0.0030783800   -0.0002988800
  -0.0001742200   -0.0000246900    0.0000246900
  -0.0035527200    0.0015109700   -0.0015109700
  -0.0006109300    0.0027780400   -0.0027780400
   0.0061215700   -0.0057055600    0.0057055600
  -0.0019560900    0.0017718600   -0.0043339600
  -0.0023756600    0.0002988800   -0.0030783800
  -0.0019560900   -0.0017718600    0.0043339600
  -0.0023756600   -0.0002988800    0.0030783800
  -0.0006109300   -0.0027780400    0.0027780400
   0.0061215700    0.0057055600   -0.0057055600
  -0.0001742200    0.0000246900   -0.0000246900
  -0.0035527200   -0.0015109700    0.0015109700
  -0.0019560900   -0.0043339600    0.0017718600
  -0.0023756600   -0.0030783800    0.0002988800
  -0.0001742200    0.0000246900    0.0000246900
  -0.0035527200   -0.0015109700   -0.0015109700
  -0.0019560900   -0.0043339600   -0.0017718600
  -0.0023756600   -0.0030783800   -0.0002988800
  -0.0019560900   -0.0017718600   -0.0043339600
  -0.0023756600   -0.0002988800   -0.0030783800
  -0.0006109300   -0.0027780400   -0.0027780400
   0.0061215700    0.0057055600    0.0057055600

2    
  0.0070710678118655   0.0000000000000000   0.0070710678118655
   0.0011808700    0.0017355400   -0.0006185700
  -0.0459617300   -0.0014326200   -0.0465219300
  -0.0008011400   -0.0019086300    0.0011975200
  -0.0005981200   -0.0001111800   -0.0006194000
  -0.0000968000    0.0002105800    0.0002336700
   0.0032857000    0.0035186600    0.0006203400
  -0.0007232500    0.0018299600    0.0013450700
   0.0031319300   -0.0000348300    0.0031538100
   0.0012972100   -0.0018281400   -0.0006790300
  -0.0003361500    0.0000917500   -0.0002477200
   0.0028386700    0.0018873900    0.0048405100
  -0.0003413000    0.0001044900   -0.0004395200
  -0.0000901900   -0.0001916000    0.0002362900
   0.0035198100   -0.0035550500    0.0016456100
   0.0028933300   -0.0019208200   -0.0021001200
   0.0001112100    0.0000851300    0.0002097900
   0.0013034500   -0.0018632800   -0.0006805400
   0.0006924800   -0.0000916800   -0.0002477900
   0.0003453500   -0.0002362800   -0.0002104400
   0.0031881600    0.0035000800    0.0067399400
  -0.0000998500   -0.0002114700    0.0002359400
  -0.0019375200    0.0035110300    0.0016457600
   0.0003262400    0.0002158100   -0.0000198000
  -0.0006281200    0.0035536100   -0.0039905800
   0.0012708200    0.0019006300   -0.0007918600
   0.0017462400    0.0001281500    0.0000290800
  -0.0032872100    0.0002183000    0.0034053500
   0.0001152000   -0.0035275500    0.0036247600
  -0.0001083700    0.0002191900    0.0002371200
  -0.0032567600   -0.0035205700    0.0002686700
  -0.0032795100   -0.0002150100   -0.0036160500
  -0.0003177900   -0.0035202700   -0.0038356700
   0.0030891200    0.0016226900    0.0030643900
   0.0077002500   -0.0035183900    0.0104988600
   0.0043588900   -0.0000433900    0.0042477400
   0.0103088600    0.0088539800    0.0124506500
   0.0030978000    0.0025415500   -0.0001828400
   0.0019197900    0.0039491100    0.0009557700
   0.0040456100    0.0018152700    0.0013126600
   0.0003604400   -0.0002112600   -0.0006093100
   0.0031440100    0.0025885100   -0.0006865400
   0.0018631200    0.0039585200   -0.0018342400
   0.0040552300    0.0017586500   -0.0021908900
   0.0003237300   -0.0002470200   -0.0002771100
   0.0098513600    0.0083463500    0.0070082600
   0.0015569000    0.0027429000   -0.0012891100
   0.0102562800   -0.0058303000    0.0046385500
   0.0029982000    0.0015035600   -0.0023991500
   0.0033553800   -0.0000879800    0.0033578100
   0.0016731000   -0.0019174000    0.0038382800
   0.0022559600   -0.0016968400    0.0022732500
   0.0001817100   -0.0024274700    0.0028957400
   0.0043700500   -0.0018124500    0.0011941700
  -0.0003285500   -0.0001459100   -0.0002712400
   0.0034242400   -0.0025413700   -0.0002902400
   0.0012317700   -0.0035855100    0.0012889400
   0.0033746000   -0.0014160500   -0.0018619100
   0.0006587300    0.0002497200   -0.0003863600
   0.0024782000   -0.0029275700   -0.0003557600
   0.0021820300   -0.0039603400   -0.0019373700
   0.0028848600    0.0002856200   -0.0026813900
   0.0021515200   -0.0015639600   -0.0031609300
   0.0017941300   -0.0020757700   -0.0016004100
   0.0006378600   -0.0027928800   -0.0022366200
  -0.0007043000    0.0030083800    0.0031396600
  -0.0019476500    0.0019413500    0.0020239300
  -0.0021752500    0.0013458700    0.0040875000
  -0.0030383000   -0.0001685000    0.0031149500
  -0.0020916400    0.0046985300    0.0010606200
  -0.0029201800    0.0028045000   -0.0000548100
  -0.0005294200   -0.0009568100   -0.0005022600
  -0.0038607200    0.0015502500    0.0014260700
  -0.0016954500    0.0037016100   -0.0017271300
  -0.0033071900    0.0018595500   -0.0005911500
  -0.0001345900    0.0000315300   -0.0001551400
  -0.0042359500    0.0024991100   -0.0020756300
  -0.0003301700    0.0025371600   -0.0024631800
  -0.0023270000    0.0014796500   -0.0013518800
  -0.0018221700    0.0018243500   -0.0034095200
  -0.0034032000    0.0002868800   -0.0024559100
  -0.0018378000   -0.0016870900    0.0034352600
  -0.0031635200    0.0001437400    0.0034076800
  -0.0003578600   -0.0026486100    0.0024674200
  -0.0020481800   -0.0019070800    0.0023109400
  -0.0001168800    0.0000495700   -0.0001008900
  -0.0038934600   -0.0015684300    0.0014084800
  -0.0016781400   -0.0037868300    0.0014664500
  -0.0029526900   -0.0027878100   -0.0000761400
  -0.0001706800   -0.0000034700   -0.0001683200
  -0.0038366500   -0.0016292100   -0.0016762800
  -0.0017389500   -0.0037300600   -0.0017335200
  -0.0028999700   -0.0027343600   -0.0001895400
  -0.0019528500   -0.0018013500   -0.0031338000
  -0.0030655600    0.0000460200   -0.0031149000
  -0.0004558500   -0.0025503900   -0.0021750100
  -0.0019458000   -0.0018039300   -0.0020177900

2    
 -0.0070710678118655   0.0000000000000000  -0.0070710678118655
  -0.0011789900   -0.0017370100    0.0006197600
   0.0457695100    0.0012283100    0.0465523400
   0.0006003800    0.0019061800   -0.0013984800
   0.0005975000   -0.0000882000    0.0004206200
   0.0000976300   -0.0002114500   -0.0002332200
   0.0037482700    0.0035152300   -0.0006206600
   0.0005252400   -0.0018318000   -0.0011438500
  -0.0031489000   -0.0001648700   -0.0029709800
  -0.0012960700    0.0018301600    0.0006808700
   0.0001370800    0.0001075200    0.0002478800
   0.0041943400   -0.0018854100    0.0021909700
   0.0003407500    0.0000947400    0.0002403600
   0.0000908700    0.0001921500   -0.0002359700
   0.0035142400   -0.0034781300   -0.0016464700
   0.0041421700    0.0019262000   -0.0049351300
  -0.0001110600    0.0001147500   -0.0000099000
  -0.0013051400    0.0018612000    0.0006793500
  -0.0004934100   -0.0001074300    0.0002478100
  -0.0001463400    0.0002355800    0.0000097200
  -0.0031722800    0.0035338200    0.0003098500
   0.0000989800    0.0002105700   -0.0002363100
  -0.0050962300    0.0035229500   -0.0016462600
  -0.0001260800   -0.0002166400    0.0002202200
   0.0006311300    0.0034805100   -0.0030448700
  -0.0012760600   -0.0019020700    0.0007903000
  -0.0015475000    0.0000706700   -0.0000294200
  -0.0037476400   -0.0002173500    0.0036272800
  -0.0001150000   -0.0035067900    0.0034087100
   0.0001075800   -0.0002186200   -0.0002378100
  -0.0037772800   -0.0035134700   -0.0002687600
  -0.0037542200    0.0002161700   -0.0034168000
   0.0003188500   -0.0035137800   -0.0031984300
   0.0003548300    0.0018300000    0.0002974300
  -0.0072535100    0.0087485200   -0.0046307400
   0.0012617000    0.0001635200    0.0012989200
  -0.0068558400   -0.0053280100   -0.0046702700
   0.0024846000    0.0030425900    0.0003483400
   0.0012252000    0.0035179600    0.0021888600
   0.0034188800    0.0013272800    0.0018320800
  -0.0003426500    0.0002258600    0.0006268200
   0.0024376000    0.0029963000    0.0005209500
   0.0012817200    0.0035081200   -0.0013103000
   0.0034092900    0.0013838900   -0.0009532800
  -0.0003067500    0.0002627500    0.0002606100
  -0.0067503300   -0.0053158300   -0.0107404700
  -0.0014288300    0.0028867100   -0.0042578500
  -0.0049621500    0.0063466500   -0.0105110600
   0.0001000200    0.0015901900   -0.0050312500
   0.0022269100   -0.0000754900    0.0022252900
   0.0014703600   -0.0012254400    0.0036268500
   0.0011486600   -0.0017101000    0.0011323200
  -0.0000168100   -0.0031559300    0.0026868300
   0.0030927200   -0.0013300500    0.0019502100
   0.0003472200    0.0001302100    0.0002890900
   0.0021569600   -0.0030427400    0.0004552200
   0.0019136100   -0.0038804800    0.0018561300
   0.0040901700   -0.0017276200   -0.0012827600
  -0.0006413200   -0.0002654900    0.0003701100
   0.0031027000   -0.0026561100    0.0001895300
   0.0009642600   -0.0035061100   -0.0012069500
   0.0026985600   -0.0004505400   -0.0029016400
   0.0009921100   -0.0015784900   -0.0043053900
   0.0016113600   -0.0013297000   -0.0018043600
  -0.0004721800   -0.0027915400   -0.0033465300
   0.0005395700    0.0025764600    0.0024439200
  -0.0014580400    0.0014648600    0.0013815200
  -0.0009680200    0.0017956100    0.0033786900
  -0.0025445400    0.0003322800    0.0024680700
  -0.0010507200    0.0027693800    0.0020857500
  -0.0026627300    0.0027796100    0.0002204900
   0.0005144300    0.0009707100    0.0005211600
  -0.0036044800    0.0015924900    0.0017185300
  -0.0014484700    0.0037653200   -0.0014171100
  -0.0022769400    0.0037263900    0.0004242800
   0.0001179700   -0.0000167200    0.0001382100
  -0.0032305400    0.0006417800   -0.0010705000
   0.0001650600    0.0030474000   -0.0031201900
  -0.0010780800    0.0019276800   -0.0020543300
  -0.0013214000    0.0013174300   -0.0040565700
  -0.0021796600   -0.0001238500   -0.0031278400
  -0.0013052800   -0.0014557800    0.0040334000
  -0.0024185700   -0.0003078100    0.0021772900
   0.0001932300   -0.0029348200    0.0031172800
  -0.0013561900   -0.0014990300    0.0010970600
   0.0001004500   -0.0000663900    0.0001181500
  -0.0035709900   -0.0015749800    0.0017355800
  -0.0014656000   -0.0036781200    0.0016783000
  -0.0026294900   -0.0027956300    0.0002411100
   0.0001535600   -0.0000125100    0.0001517200
  -0.0036285600   -0.0015148600   -0.0014684200
  -0.0014055200   -0.0037357200   -0.0014104100
  -0.0026829000   -0.0028483200    0.0000240100
  -0.0011913600   -0.0013410500   -0.0043349300
  -0.0025175900   -0.0002105500   -0.0024696000
   0.0002902100   -0.0030335800   -0.0034099700
  -0.0014601900   -0.0016022500   -0.0013900900

5    
  0.0070710678118655   0.0000000000000000   0.0070710678118655
  -0.0002102300   -0.0000000000    0.0005039800
  -0.0001973800    0.0001118100    0.0002333700
  -0.0006316900   -0.0000000000   -0.0006580600
  -0.0006792800   -0.0019278300    0.0012055900
  -0.0464127700   -0.0000000000   -0.0460007200
   0.0048309800    0.0053772200   -0.0006687700
   0.0030339300   -0.0000000000    0.0032739400
  -0.0006805900    0.0017304600    0.0014029400
   0.0000049700   -0.0000000000    0.0015890400
  -0.0001973800   -0.0001118100    0.0002333700
   0.0031948300   -0.0000000000    0.0032059700
  -0.0006792800    0.0019278300    0.0012055900
  -0.0002531400   -0.0000000000   -0.0002465200
   0.0048309800   -0.0053772200   -0.0006687700
   0.0036354000   -0.0000000000   -0.0033976300
  -0.0006805900   -0.0017304600    0.0014029400
   0.0015889600   -0.0000000000    0.0015890100
   0.0000027700   -0.0003102300    0.0002336600
   0.0032173600   -0.0000000000    0.0030589500
   0.0002425200    0.0032969500    0.0034219000
   0.0005912600   -0.0000000000   -0.0002465300
  -0.0022015600    0.0016590300   -0.0006674600
  -0.0004335100   -0.0000000000   -0.0004578900
   0.0002420800    0.0037378800   -0.0036131900
   0.0002531100   -0.0000000000    0.0002592100
   0.0000027700    0.0003102300    0.0002336600
  -0.0033983500   -0.0000000000    0.0036367200
   0.0002425200   -0.0032969500    0.0034219000
   0.0016033400   -0.0000000000   -0.0000088700
  -0.0022015600   -0.0016590300   -0.0006674600
  -0.0038396700   -0.0000000000   -0.0038276600
   0.0002420800   -0.0037378800   -0.0036131900
   0.0020232500    0.0014556100    0.0014463000
  -0.0000567100    0.0027827400    0.0026527300
   0.0034083500    0.0003115300    0.0024085500
   0.0014126100    0.0015723800    0.0035674300
   0.0042275300    0.0027798600    0.0015524600
   0.0013134800    0.0039757900    0.0018869800
   0.0042906700    0.0015658800    0.0021349500
  -0.0003666300   -0.0002300100    0.0006362700
   0.0110184700    0.0096105000    0.0080932500
   0.0009679900    0.0035184900   -0.0012186100
   0.0038333700    0.0012198300   -0.0014669300
  -0.0002664200   -0.0001305500   -0.0003338200
   0.0020432100    0.0014748900   -0.0023075700
  -0.0004126700    0.0018418400   -0.0033147100
   0.0024680300   -0.0000454400   -0.0030706600
   0.0014690200    0.0016280700   -0.0038404000
   0.0034083500   -0.0003115300    0.0024085500
   0.0014126100   -0.0015723800    0.0035674300
   0.0020232500   -0.0014556100    0.0014463000
  -0.0000567100   -0.0027827400    0.0026527300
   0.0042906700   -0.0015658800    0.0021349500
  -0.0003666300    0.0002300100    0.0006362700
   0.0042275300   -0.0027798600    0.0015524600
   0.0013134800   -0.0039757900    0.0018869800
   0.0038333700   -0.0012198300   -0.0014669300
  -0.0002664200    0.0001305500   -0.0003338200
   0.0110184700   -0.0096105000    0.0080932500
   0.0009679900   -0.0035184900   -0.0012186100
   0.0024680300    0.0000454400   -0.0030706600
   0.0014690200   -0.0016280700   -0.0038404000
   0.0020432100   -0.0014748900   -0.0023075700
  -0.0004126700   -0.0018418400   -0.0033147100
  -0.0005797000    0.0037378100    0.0022663100
  -0.0013622100    0.0019273100    0.0010963000
  -0.0016756900    0.0015163200    0.0036239200
  -0.0031165200    0.0002115400    0.0025112300
  -0.0021767700    0.0039441500    0.0019249000
   0.0051379000   -0.0036609800    0.0079632000
  -0.0002840600    0.0001483100   -0.0003187500
  -0.0036312200    0.0019252400    0.0016775300
  -0.0018311000    0.0034874000   -0.0012568000
  -0.0013160100    0.0027552500    0.0013483900
  -0.0003832400    0.0002482400    0.0006214600
  -0.0031744700    0.0015801200   -0.0010090500
  -0.0002221900    0.0027983900   -0.0029295700
  -0.0013818000    0.0019476300   -0.0019578900
  -0.0017314300    0.0015727700   -0.0038974700
  -0.0021764800   -0.0001449900   -0.0031744000
  -0.0016756900   -0.0015163200    0.0036239200
  -0.0031165200   -0.0002115400    0.0025112300
  -0.0005797000   -0.0037378100    0.0022663100
  -0.0013622100   -0.0019273100    0.0010963000
  -0.0002840600   -0.0001483100   -0.0003187500
  -0.0036312200   -0.0019252400    0.0016775300
  -0.0021767700   -0.0039441500    0.0019249000
   0.0051379000    0.0036609800    0.0079632000
  -0.0003832400   -0.0002482400    0.0006214600
  -0.0031744700   -0.0015801200   -0.0010090500
  -0.0018311000   -0.0034874000   -0.0012568000
  -0.0013160100   -0.0027552500    0.0013483900
  -0.0017314300   -0.0015727700   -0.0038974700
  -0.0021764800    0.0001449900   -0.0031744000
  -0.0002221900   -0.0027983900   -0.0029295700
  -0.0013818000   -0.0019476300   -0.0019578900

6    
  0.0070710678118655   0.0000000000000000   0.0070710678118655
  -0.0001014300    0.0001877900    0.0001779900
  -0.0003309400   -0.0000978800    0.0006206800
  -0.0007690600    0.0018778100    0.0011865900
   0.0032684400   -0.0001645900    0.0030120900
   0.0013156300    0.0018581100   -0.0006675100
  -0.0422053700    0.0030938700   -0.0454138300
  -0.0007330200   -0.0019324800    0.0013641100
  -0.0005341100   -0.0001275000   -0.0004684900
  -0.0001013800   -0.0002201000    0.0002425300
  -0.0000969300    0.0001054200    0.0016461400
   0.0028381800   -0.0018436900    0.0048118200
   0.0001116200    0.0001041800    0.0000120100
   0.0013419500   -0.0018482300   -0.0006535600
   0.0032733600   -0.0035173500   -0.0002385800
   0.0028278900    0.0018542800   -0.0022146400
  -0.0003221700    0.0001063900   -0.0002151900
  -0.0000962200   -0.0002155600    0.0002420700
   0.0016787300   -0.0000612400    0.0016458500
   0.0003324600    0.0002198900   -0.0001941200
  -0.0005499700    0.0035166300    0.0029623600
   0.0012876400   -0.0018724200   -0.0006547400
  -0.0029119100    0.0035173200   -0.0002385600
   0.0003343100   -0.0002134800   -0.0000093500
   0.0031552000    0.0035077600   -0.0003581700
  -0.0001033300    0.0002131900    0.0002306500
   0.0003598100    0.0000960600    0.0002685600
  -0.0032740000   -0.0002206700    0.0034135200
  -0.0003206600   -0.0035128500    0.0031978900
   0.0013158500    0.0018534900   -0.0006707100
  -0.0019106700   -0.0035101700    0.0000017700
  -0.0032803800    0.0002154800   -0.0036191000
   0.0001151400   -0.0035188100   -0.0034038600
   0.0020304400    0.0015152000    0.0010982600
   0.0003899200    0.0030373100    0.0025400800
   0.0031388000    0.0002811400    0.0021893900
   0.0018859200    0.0013269800    0.0034745500
   0.0107316300    0.0092709200    0.0079403500
   0.0030359100    0.0037298600    0.0030442100
   0.0113875900   -0.0045524400    0.0091594800
   0.0014162500   -0.0000171000    0.0014923300
   0.0042552500    0.0028324500    0.0013594100
   0.0094825400   -0.0027738000    0.0063107900
   0.0052513200    0.0015293100   -0.0001304100
   0.0080706800    0.0066769600    0.0080835200
   0.0020039500    0.0014884100   -0.0019566700
   0.0004374300    0.0030138800   -0.0033995600
   0.0031153300    0.0003287400   -0.0030490000
   0.0019144500    0.0013551100   -0.0043402100
   0.0024761100    0.0000510300    0.0025147400
   0.0021861800   -0.0013363700    0.0033542400
   0.0013734800   -0.0018462000    0.0014265700
   0.0006985300   -0.0030309200    0.0024057000
   0.0038397700   -0.0012185200    0.0016760400
   0.0005653400   -0.0000092800    0.0005691900
   0.0028941000   -0.0031478800    0.0001824600
   0.0021359200   -0.0037340100    0.0021373300
   0.0042888000   -0.0015691900   -0.0010186200
   0.0001086000   -0.0003595500    0.0000938000
   0.0033622000   -0.0027943500    0.0004780300
   0.0016667800   -0.0033633500   -0.0014657300
   0.0034133500   -0.0003090800   -0.0031646000
   0.0012492900   -0.0017056500   -0.0040091000
   0.0023124400   -0.0014682400   -0.0020710300
  -0.0002471200   -0.0026546200   -0.0030768700
  -0.0002261700    0.0027939500    0.0026507900
  -0.0022149700    0.0007549000    0.0012090500
  -0.0017063200    0.0015654700    0.0035860000
  -0.0033135600    0.0010373000    0.0022575000
  -0.0018305500    0.0034940400    0.0018839700
  -0.0034038100    0.0025684800    0.0004271500
  -0.0002677700    0.0002532700    0.0003254300
  -0.0043646600    0.0017941400    0.0019257100
  -0.0021815600    0.0039435600   -0.0012266800
  -0.0030497900    0.0030364900    0.0002328000
  -0.0006175400   -0.0002034600    0.0003380000
  -0.0039945100    0.0013256200   -0.0012541500
  -0.0005857300    0.0037320000   -0.0032993700
  -0.0018360300    0.0016931300   -0.0018537600
  -0.0020746000    0.0006280500   -0.0042405900
  -0.0029367400    0.0000927300   -0.0029297900
  -0.0017319000   -0.0015718800    0.0035664400
  -0.0028999900   -0.0001383200    0.0026812600
  -0.0002456600   -0.0027890000    0.0026275500
  -0.0018045500   -0.0016509300    0.0015941400
  -0.0003854800   -0.0002446100    0.0006360900
  -0.0040106200   -0.0014290700    0.0012410100
  -0.0019495400   -0.0035050000    0.0021956700
  -0.0030691900   -0.0029292800   -0.0002429300
  -0.0002843000   -0.0001441600   -0.0003319100
  -0.0041020200   -0.0013335300   -0.0009454100
  -0.0018537700   -0.0035966300   -0.0019003800
  -0.0031678500   -0.0030287000    0.0005387600
  -0.0016774100   -0.0015180700   -0.0038407600
  -0.0029574700   -0.0000821700   -0.0029524100
  -0.0001895500   -0.0028464500   -0.0028980200
  -0.0018522300   -0.0016992700   -0.0018660000

6    
 -0.0070710678118655   0.0000000000000000  -0.0070710678118655
   0.0001022400   -0.0001883900   -0.0001777300
   0.0001317900   -0.0001012900   -0.0006203800
   0.0005704400   -0.0018786800   -0.0013836100
  -0.0032836900   -0.0000347300   -0.0032262400
  -0.0013138300   -0.0018600700    0.0006688000
   0.0492425200    0.0039443400    0.0454144000
   0.0005322900    0.0019308600   -0.0011667600
   0.0005334600   -0.0000718300    0.0006689400
   0.0001024500    0.0002208400   -0.0002421100
  -0.0001023600    0.0000934900   -0.0016460000
   0.0041973100    0.0018453500    0.0022244200
  -0.0001112800    0.0000950700   -0.0002112500
  -0.0013399800    0.0018500700    0.0006546800
   0.0037606800   -0.0035167500    0.0002385600
   0.0042047800   -0.0018525100   -0.0048213200
   0.0003217700    0.0000927900    0.0004148000
   0.0000951300    0.0002148400   -0.0002425700
  -0.0014798700   -0.0001381200   -0.0016462400
  -0.0001327500   -0.0002206500   -0.0000043500
   0.0005509100    0.0035174000    0.0040706500
  -0.0012893700    0.0018705900    0.0006535000
  -0.0041221400    0.0035167300    0.0002386000
  -0.0001354000    0.0002128000    0.0002076000
  -0.0031396800    0.0035262800   -0.0066604400
   0.0001023300   -0.0002124300   -0.0002311600
  -0.0001606000    0.0001031300   -0.0002689400
  -0.0037597000    0.0002214700    0.0036215700
   0.0003211000   -0.0035212700    0.0038357000
  -0.0013174100   -0.0018513500    0.0006693100
  -0.0051233200   -0.0035239300   -0.0000017800
  -0.0037541700   -0.0002147300   -0.0034159900
  -0.0001154700   -0.0035153200   -0.0036305000
   0.0013737900    0.0018916700    0.0023062700
  -0.0002243300    0.0025470500    0.0030422900
   0.0024430100   -0.0001181800    0.0033928400
   0.0012589000    0.0018156800    0.0039896600
  -0.0054474300   -0.0040562200   -0.0080711000
   0.0000711000    0.0037809700    0.0001373300
  -0.0042145500    0.0080543800   -0.0063042000
  -0.0014368100   -0.0000125000   -0.0014367800
   0.0013660900    0.0027972300   -0.0015628600
  -0.0060471200    0.0098807900   -0.0091664300
   0.0022507100    0.0015693100   -0.0030508300
  -0.0077588300   -0.0062969100   -0.0078051500
   0.0013999700    0.0019175800   -0.0014477700
  -0.0002714300    0.0025709900   -0.0021828300
   0.0024668800   -0.0001652300   -0.0025335100
   0.0012307000    0.0017870500   -0.0031240900
   0.0031046700   -0.0002151600    0.0030672600
   0.0009603200   -0.0018064500    0.0041107100
   0.0020289100   -0.0015596500    0.0019772300
  -0.0005311400   -0.0025533900    0.0031772200
   0.0036250600   -0.0019249100    0.0014685200
  -0.0005480500   -0.0000058300   -0.0005527400
   0.0026885800   -0.0024355300   -0.0000171400
   0.0010088100   -0.0037326700    0.0010064700
   0.0031755900   -0.0015734000   -0.0021251800
  -0.0000918800    0.0003435600   -0.0001108200
   0.0022200100   -0.0027899400   -0.0006428000
   0.0014773400   -0.0041022400   -0.0016787800
   0.0021671700    0.0001454500   -0.0024182600
   0.0018969100   -0.0014376300   -0.0034548300
   0.0010901800   -0.0019375900   -0.0013337400
   0.0004140700   -0.0029291700   -0.0025052100
   0.0000614200    0.0027903300    0.0029316800
  -0.0011918200    0.0026524500    0.0021936300
  -0.0014375600    0.0015772700    0.0038784000
  -0.0022711800   -0.0008753600    0.0033235600
  -0.0013134300    0.0039722900    0.0012599400
  -0.0021792500    0.0030162900   -0.0002629300
   0.0002512700   -0.0002379800   -0.0003090900
  -0.0031006200    0.0013479500    0.0012174000
  -0.0009622700    0.0035233100   -0.0019167000
  -0.0025331400    0.0025476400   -0.0003975200
   0.0006011500    0.0002182000   -0.0003540000
  -0.0034706700    0.0018170900   -0.0018897300
   0.0004225400    0.0018536900   -0.0022814400
  -0.0015687400    0.0017130300   -0.0015504300
  -0.0010677700    0.0025132700   -0.0032222900
  -0.0026463900    0.0000708800   -0.0026527000
  -0.0014126200   -0.0015715500    0.0038986900
  -0.0026831600   -0.0000267100    0.0029011500
   0.0000802500   -0.0027946100    0.0029555300
  -0.0016001700   -0.0017535000    0.0018099600
   0.0003684800    0.0002292400   -0.0006213400
  -0.0034549700   -0.0017142600    0.0019014800
  -0.0011949000   -0.0039612700    0.0009465400
  -0.0025142500   -0.0026543100    0.0004064000
   0.0002683000    0.0001283200    0.0003167400
  -0.0033626400   -0.0018092600   -0.0021967700
  -0.0012896700   -0.0038691700   -0.0012421400
  -0.0024145700   -0.0025553900   -0.0007019200
  -0.0014664800   -0.0016261000   -0.0036234300
  -0.0026250000   -0.0000821200   -0.0026305100
   0.0000248200   -0.0027364300   -0.0026842200
  -0.0015523300   -0.0017063100   -0.0015388200

13   
  0.0070710678118655   0.0070710678118655   0.0000000000000000
   0.0000353300    0.0015616600   -0.0000000000
  -0.0003820300   -0.0004106200   -0.0000000000
  -0.0001909600    0.0002358500   -0.0003111000
  -0.0007899000    0.0011747400    0.0018007100
  -0.0002531000    0.0005912800   -0.0000000000
   0.0030092100    0.0029332100   -0.0000000000
  -0.0001909600    0.0002358500    0.0003111000
  -0.0007899000    0.0011747400   -0.0018007100
  -0.0002531200   -0.0002465700   -0.0000000000
   0.0000012500    0.0002111000   -0.0000000000
   0.0048573400   -0.0006547700    0.0016441900
  -0.0007921800    0.0013720100   -0.0020020100
  -0.0464123500   -0.0468911800   -0.0000000000
   0.0067151200   -0.0003490200   -0.0000000000
   0.0048573400   -0.0006547700   -0.0016441900
  -0.0007921800    0.0013720100    0.0020020100
   0.0002591900    0.0002531400   -0.0000000000
   0.0002013100    0.0000119600   -0.0000000000
   0.0000097800    0.0002364900    0.0001109300
   0.0002311400    0.0034146000    0.0037294400
   0.0016118200    0.0016118200   -0.0000000000
  -0.0003349900    0.0066689400   -0.0000000000
   0.0000097800    0.0002364900   -0.0001109300
   0.0002311400    0.0034146000   -0.0037294400
   0.0016118500    0.0000312700   -0.0000000000
  -0.0001828900   -0.0002103900   -0.0000000000
  -0.0021754000   -0.0006534600    0.0053872100
   0.0002306900   -0.0036202600    0.0033038100
   0.0006240500   -0.0002296600   -0.0000000000
  -0.0040256000   -0.0040992200   -0.0000000000
  -0.0021754000   -0.0006534600   -0.0053872100
   0.0002306900   -0.0036202600   -0.0033038100
   0.0023086400    0.0013416100    0.0014858100
  -0.0000801900    0.0026337900    0.0027881400
   0.0033635500    0.0006528000    0.0027789700
   0.0011950000    0.0021959500    0.0039648400
   0.0031133000    0.0025353100    0.0003390400
   0.0014309300    0.0035950100    0.0015864400