<?xml version="1.0" encoding="ISO-8859-1"?>
<modeling>
 <generator>
  <i name="program" type="string">vasp </i>
  <i name="version" type="string">5.4.4.18Apr17-6-g9f103f2a35  </i>
  <i name="subversion" type="string">(build Apr 28 2017 11:12:57) complex            parallel </i>
  <i name="platform" type="string">LinuxIFC </i>
  <i name="date" type="string">2018 06 27 </i>
  <i name="time" type="string">23:17:31 </i>
 </generator>
 <incar>
  <i type="string" name="PREC">accurate</i>
  <i type="int" name="IALGO">    38</i>
  <i type="int" name="IBRION">    -1</i>
  <i name="EDIFF">      0.00000001</i>
  <i type="int" name="ISYM">     0</i>
  <i name="ENCUT">    270.00000000</i>
  <i type="logical" name="LREAL"> F  </i>
  <i type="int" name="ISMEAR">     0</i>
  <i name="SIGMA">      0.01000000</i>
  <i type="logical" name="LWAVE"> F  </i>
  <i type="logical" name="LCHARG"> F  </i>
  <v type="int" name="KPOINT_BSE">    -1     0     0     0</v>
 </incar>
 <structure name="primitive_cell" >
  <crystal>
   <varray name="basis" >
    <v>      12.74739769       0.00000000       0.00000000 </v>
    <v>       0.00000000      12.74739769       0.00000000 </v>
    <v>       0.00000000       0.00000000      12.74739769 </v>
   </varray>
   <i name="volume">   2071.40301882 </i>
   <varray name="rec_basis" >
    <v>       0.07844738       0.00000000       0.00000000 </v>
    <v>       0.00000000       0.07844738       0.00000000 </v>
    <v>       0.00000000       0.00000000       0.07844738 </v>
   </varray>
  </crystal>
  <varray name="positions" >
   <v>       0.00078447       0.00000000       0.00000000 </v>
   <v>       0.12960836       0.12960836       0.12960836 </v>
   <v>       0.12960836      -0.12960836       0.12960836 </v>
   <v>       0.12960836       0.12960836      -0.12960836 </v>
   <v>       0.12960836      -0.12960836      -0.12960836 </v>
   <v>      -0.12960836       0.12960836       0.12960836 </v>
   <v>      -0.12960836      -0.12960836       0.12960836 </v>
   <v>      -0.12960836       0.12960836      -0.12960836 </v>
   <v>      -0.12960836      -0.12960836      -0.12960836 </v>
   <v>       0.25140293       0.25140293       0.00000000 </v>
   <v>       0.25140293      -0.25140293       0.00000000 </v>
   <v>       0.25140293       0.00000000       0.25140293 </v>
   <v>       0.25140293       0.00000000      -0.25140293 </v>
   <v>       0.00000000       0.25140293       0.25140293 </v>
   <v>       0.00000000      -0.25140293       0.25140293 </v>
   <v>       0.00000000       0.25140293      -0.25140293 </v>
   <v>       0.00000000      -0.25140293      -0.25140293 </v>
   <v>      -0.25140293       0.25140293       0.00000000 </v>
   <v>      -0.25140293      -0.25140293       0.00000000 </v>
   <v>      -0.25140293       0.00000000       0.25140293 </v>
   <v>      -0.25140293       0.00000000      -0.25140293 </v>
   <v>       0.37578643       0.12507203       0.12507203 </v>
   <v>       0.37578643      -0.12507203       0.12507203 </v>
   <v>       0.37578643       0.12507203      -0.12507203 </v>
   <v>       0.37578643      -0.12507203      -0.12507203 </v>
   <v>       0.12507203       0.12507203      -0.37578643 </v>
   <v>       0.12507203      -0.12507203      -0.37578643 </v>
   <v>       0.12507203       0.12507203       0.37578643 </v>
   <v>       0.12507203      -0.12507203       0.37578643 </v>
   <v>       0.12507203      -0.37578643       0.12507203 </v>
   <v>       0.12507203       0.37578643       0.12507203 </v>
   <v>       0.12507203      -0.37578643      -0.12507203 </v>
   <v>       0.12507203       0.37578643      -0.12507203 </v>
   <v>      -0.12507203      -0.37578643       0.12507203 </v>
   <v>      -0.12507203       0.12507203      -0.37578643 </v>
   <v>      -0.12507203       0.37578643       0.12507203 </v>
   <v>      -0.12507203      -0.12507203      -0.37578643 </v>
   <v>      -0.12507203       0.12507203       0.37578643 </v>
   <v>      -0.12507203      -0.37578643      -0.12507203 </v>
   <v>      -0.12507203      -0.12507203       0.37578643 </v>
   <v>      -0.12507203       0.37578643      -0.12507203 </v>
   <v>      -0.37578643       0.12507203       0.12507203 </v>
   <v>      -0.37578643      -0.12507203       0.12507203 </v>
   <v>      -0.37578643       0.12507203      -0.12507203 </v>
   <v>      -0.37578643      -0.12507203      -0.12507203 </v>
   <v>      -0.50000000       0.00000000       0.00000000 </v>
   <v>       0.00000000      -0.50000000       0.00000000 </v>
   <v>       0.00000000       0.00000000      -0.50000000 </v>
   <v>       0.37544727      -0.37544727       0.12469540 </v>
   <v>       0.37544727       0.12469540      -0.37544727 </v>
   <v>       0.37544727       0.37544727       0.12469540 </v>
   <v>       0.37544727      -0.12469540      -0.37544727 </v>
   <v>       0.37544727       0.12469540       0.37544727 </v>
   <v>       0.37544727      -0.37544727      -0.12469540 </v>
   <v>       0.37544727      -0.12469540       0.37544727 </v>
   <v>       0.37544727       0.37544727      -0.12469540 </v>
   <v>       0.12469540      -0.37544727      -0.37544727 </v>
   <v>       0.12469540       0.37544727      -0.37544727 </v>
   <v>       0.12469540      -0.37544727       0.37544727 </v>
   <v>       0.12469540       0.37544727       0.37544727 </v>
   <v>      -0.12469540      -0.37544727      -0.37544727 </v>
   <v>      -0.12469540       0.37544727      -0.37544727 </v>
   <v>      -0.12469540      -0.37544727       0.37544727 </v>
   <v>      -0.12469540       0.37544727       0.37544727 </v>
   <v>      -0.37544727      -0.37544727       0.12469540 </v>
   <v>      -0.37544727       0.12469540      -0.37544727 </v>
   <v>      -0.37544727       0.37544727       0.12469540 </v>
   <v>      -0.37544727      -0.12469540      -0.37544727 </v>
   <v>      -0.37544727       0.12469540       0.37544727 </v>
   <v>      -0.37544727      -0.37544727      -0.12469540 </v>
   <v>      -0.37544727      -0.12469540       0.37544727 </v>
   <v>      -0.37544727       0.37544727      -0.12469540 </v>
   <v>      -0.50000000       0.25012668       0.25012668 </v>
   <v>      -0.50000000      -0.25012668       0.25012668 </v>
   <v>      -0.50000000       0.25012668      -0.25012668 </v>
   <v>      -0.50000000      -0.25012668      -0.25012668 </v>
   <v>       0.25012668      -0.50000000       0.25012668 </v>
   <v>       0.25012668      -0.50000000      -0.25012668 </v>
   <v>       0.25012668       0.25012668      -0.50000000 </v>
   <v>       0.25012668      -0.25012668      -0.50000000 </v>
   <v>      -0.25012668       0.25012668      -0.50000000 </v>
   <v>      -0.25012668      -0.25012668      -0.50000000 </v>
   <v>      -0.25012668      -0.50000000       0.25012668 </v>
   <v>      -0.25012668      -0.50000000      -0.25012668 </v>
   <v>       0.37491761      -0.37491761      -0.37491761 </v>
   <v>       0.37491761       0.37491761      -0.37491761 </v>
   <v>       0.37491761      -0.37491761       0.37491761 </v>
   <v>       0.37491761       0.37491761       0.37491761 </v>
   <v>      -0.37491761      -0.37491761      -0.37491761 </v>
   <v>      -0.37491761       0.37491761      -0.37491761 </v>
   <v>      -0.37491761      -0.37491761       0.37491761 </v>
   <v>      -0.37491761       0.37491761       0.37491761 </v>
   <v>      -0.50000000      -0.50000000       0.00000000 </v>
   <v>      -0.50000000       0.00000000      -0.50000000 </v>
   <v>       0.00000000      -0.50000000      -0.50000000 </v>
   <v>      -0.50000000      -0.50000000      -0.50000000 </v>
  </varray>
 </structure>
 <varray name="primitive_index" >
  <v type="int" >        1 </v>
  <v type="int" >       33 </v>
  <v type="int" >       51 </v>
  <v type="int" >       69 </v>
  <v type="int" >       87 </v>
  <v type="int" >       42 </v>
  <v type="int" >       60 </v>
  <v type="int" >       78 </v>
  <v type="int" >       96 </v>
  <v type="int" >        9 </v>
  <v type="int" >       11 </v>
  <v type="int" >       17 </v>
  <v type="int" >       21 </v>
  <v type="int" >       25 </v>
  <v type="int" >       27 </v>
  <v type="int" >       29 </v>
  <v type="int" >       31 </v>
  <v type="int" >       10 </v>
  <v type="int" >       12 </v>
  <v type="int" >       18 </v>
  <v type="int" >       22 </v>
  <v type="int" >       41 </v>
  <v type="int" >       59 </v>
  <v type="int" >       77 </v>
  <v type="int" >       95 </v>
  <v type="int" >       37 </v>
  <v type="int" >       55 </v>
  <v type="int" >       65 </v>
  <v type="int" >       83 </v>
  <v type="int" >       35 </v>
  <v type="int" >       49 </v>
  <v type="int" >       71 </v>
  <v type="int" >       85 </v>
  <v type="int" >       44 </v>
  <v type="int" >       46 </v>
  <v type="int" >       58 </v>
  <v type="int" >       64 </v>
  <v type="int" >       74 </v>
  <v type="int" >       80 </v>
  <v type="int" >       92 </v>
  <v type="int" >       94 </v>
  <v type="int" >       34 </v>
  <v type="int" >       52 </v>
  <v type="int" >       70 </v>
  <v type="int" >       88 </v>
  <v type="int" >        2 </v>
  <v type="int" >        3 </v>
  <v type="int" >        5 </v>
  <v type="int" >       43 </v>
  <v type="int" >       45 </v>
  <v type="int" >       57 </v>
  <v type="int" >       63 </v>
  <v type="int" >       73 </v>
  <v type="int" >       79 </v>
  <v type="int" >       91 </v>
  <v type="int" >       93 </v>
  <v type="int" >       39 </v>
  <v type="int" >       53 </v>
  <v type="int" >       67 </v>
  <v type="int" >       81 </v>
  <v type="int" >       48 </v>
  <v type="int" >       62 </v>
  <v type="int" >       76 </v>
  <v type="int" >       90 </v>
  <v type="int" >       36 </v>
  <v type="int" >       38 </v>
  <v type="int" >       50 </v>
  <v type="int" >       56 </v>
  <v type="int" >       66 </v>
  <v type="int" >       72 </v>
  <v type="int" >       84 </v>
  <v type="int" >       86 </v>
  <v type="int" >       26 </v>
  <v type="int" >       28 </v>
  <v type="int" >       30 </v>
  <v type="int" >       32 </v>
  <v type="int" >       19 </v>
  <v type="int" >       23 </v>
  <v type="int" >       13 </v>
  <v type="int" >       15 </v>
  <v type="int" >       14 </v>
  <v type="int" >       16 </v>
  <v type="int" >       20 </v>
  <v type="int" >       24 </v>
  <v type="int" >       47 </v>
  <v type="int" >       61 </v>
  <v type="int" >       75 </v>
  <v type="int" >       89 </v>
  <v type="int" >       40 </v>
  <v type="int" >       54 </v>
  <v type="int" >       68 </v>
  <v type="int" >       82 </v>
  <v type="int" >        4 </v>
  <v type="int" >        6 </v>
  <v type="int" >        7 </v>
  <v type="int" >        8 </v>
 </varray>
 <kpoints>
  <generation param="Gamma">
   <v type="int" name="divisions">       1        1        1 </v>
   <v name="usershift">      0.00000000       0.00000000       0.00000000 </v>
   <v name="genvec1">      1.00000000       0.00000000       0.00000000 </v>
   <v name="genvec2">      0.00000000       1.00000000       0.00000000 </v>
   <v name="genvec3">      0.00000000       0.00000000       1.00000000 </v>
   <v name="shift">      0.00000000       0.00000000       0.00000000 </v>
  </generation>
  <varray name="kpointlist" >
   <v>       0.00000000       0.00000000       0.00000000 </v>
  </varray>
  <varray name="weights" >
   <v>       1.00000000 </v>
  </varray>
 </kpoints>
 <parameters>
  <separator name="general" >
   <i type="string" name="SYSTEM">unknown system</i>
   <i type="logical" name="LCOMPAT"> F  </i>
  </separator>
  <separator name="electronic" >
   <i type="string" name="PREC">accura</i>
   <i name="ENMAX">    270.00000000</i>
   <i name="ENAUG">    454.73400000</i>
   <i name="EDIFF">      0.00000001</i>
   <i type="int" name="IALGO">    38</i>
   <i type="int" name="IWAVPR">    10</i>
   <i type="int" name="NBANDS">   178</i>
   <i name="NELECT">    256.00000000</i>
   <i type="int" name="TURBO">     0</i>
   <i type="int" name="IRESTART">     0</i>
   <i type="int" name="NREBOOT">     0</i>
   <i type="int" name="NMIN">     0</i>
   <i name="EREF">      0.00000000</i>
   <separator name="electronic smearing" >
    <i type="int" name="ISMEAR">     0</i>
    <i name="SIGMA">      0.01000000</i>
    <i name="KSPACING">      0.50000000</i>
    <i type="logical" name="KGAMMA"> T  </i>
   </separator>
   <separator name="electronic projectors" >
    <i type="logical" name="LREAL"> F  </i>
    <v name="ROPT">      0.00000000      0.00000000      0.00000000</v>
    <i type="int" name="LMAXPAW">  -100</i>
    <i type="int" name="LMAXMIX">     2</i>
    <i type="logical" name="NLSPLINE"> F  </i>
   </separator>
   <separator name="electronic startup" >
    <i type="int" name="ISTART">     0</i>
    <i type="int" name="ICHARG">     2</i>
    <i type="int" name="INIWAV">     1</i>
   </separator>
   <separator name="electronic spin" >
    <i type="int" name="ISPIN">     1</i>
    <i type="logical" name="LNONCOLLINEAR"> F  </i>
    <v name="MAGMOM">      1.00000000      1.00000000      1.00000000      1.00000000      1.00000000      1.00000000      1.00000000      1.00000000      1.00000000      1.00000000      1.00000000      1.00000000      1.00000000      1.00000000      1.00000000      1.00000000      1.00000000      1.00000000      1.00000000      1.00000000
      1.00000000      1.00000000      1.00000000      1.00000000      1.00000000      1.00000000      1.00000000      1.00000000      1.00000000      1.00000000      1.00000000      1.00000000      1.00000000      1.00000000      1.00000000      1.00000000      1.00000000      1.00000000      1.00000000      1.00000000
      1.00000000      1.00000000      1.00000000      1.00000000      1.00000000      1.00000000      1.00000000      1.00000000      1.00000000      1.00000000      1.00000000      1.00000000      1.00000000      1.00000000      1.00000000      1.00000000      1.00000000      1.00000000      1.00000000      1.00000000
      1.00000000      1.00000000      1.00000000      1.00000000      1.00000000      1.00000000      1.00000000      1.00000000      1.00000000      1.00000000      1.00000000      1.00000000      1.00000000      1.00000000      1.00000000      1.00000000      1.00000000      1.00000000      1.00000000      1.00000000
      1.00000000      1.00000000      1.00000000      1.00000000      1.00000000      1.00000000      1.00000000      1.00000000      1.00000000      1.00000000      1.00000000      1.00000000      1.00000000      1.00000000      1.00000000      1.00000000</v>
    <i name="NUPDOWN">     -1.00000000</i>
    <i type="logical" name="LSORBIT"> F  </i>
    <v name="SAXIS">      0.00000000      0.00000000      1.00000000</v>
    <i type="logical" name="LSPIRAL"> F  </i>
    <v name="QSPIRAL">      0.00000000      0.00000000      0.00000000</v>
    <i type="logical" name="LZEROZ"> F  </i>
   </separator>
   <separator name="electronic exchange-correlation" >
    <i type="logical" name="LASPH"> F  </i>
    <i type="logical" name="LMETAGGA"> F  </i>
   </separator>
   <separator name="electronic convergence" >
    <i type="int" name="NELM">    60</i>
    <i type="int" name="NELMDL">    -5</i>
    <i type="int" name="NELMIN">     2</i>
    <i name="ENINI">    270.00000000</i>
    <separator name="electronic convergence detail" >
     <i type="logical" name="LDIAG"> T  </i>
     <i type="logical" name="LSUBROT"> F  </i>
     <i name="WEIMIN">      0.00000000</i>
     <i name="EBREAK">      0.00000000</i>
     <i name="DEPER">      0.30000000</i>
     <i type="int" name="NRMM">     4</i>
     <i name="TIME">      0.40000000</i>
    </separator>
   </separator>
   <separator name="electronic mixer" >
    <i name="AMIX">      0.40000000</i>
    <i name="BMIX">      1.00000000</i>
    <i name="AMIN">      0.10000000</i>
    <i name="AMIX_MAG">      1.60000000</i>
    <i name="BMIX_MAG">      1.00000000</i>
    <separator name="electronic mixer details" >
     <i type="int" name="IMIX">     4</i>
     <i type="logical" name="MIXFIRST"> F  </i>
     <i type="int" name="MAXMIX">   -45</i>
     <i name="WC">    100.00000000</i>
     <i type="int" name="INIMIX">     1</i>
     <i type="int" name="MIXPRE">     1</i>
     <i type="int" name="MREMOVE">     5</i>
    </separator>
   </separator>
   <separator name="electronic dipolcorrection" >
    <i type="logical" name="LDIPOL"> F  </i>
    <i type="logical" name="LMONO"> F  </i>
    <i type="int" name="IDIPOL">     0</i>
    <i name="EPSILON">      1.00000000</i>
    <v name="DIPOL">   -100.00000000   -100.00000000   -100.00000000</v>
    <i name="EFIELD">      0.00000000</i>
   </separator>
  </separator>
  <separator name="grids" >
   <i type="int" name="NGX">    70</i>
   <i type="int" name="NGY">    70</i>
   <i type="int" name="NGZ">    70</i>
   <i type="int" name="NGXF">   140</i>
   <i type="int" name="NGYF">   140</i>
   <i type="int" name="NGZF">   140</i>
   <i type="logical" name="ADDGRID"> F  </i>
  </separator>
  <separator name="ionic" >
   <i type="int" name="NSW">     0</i>
   <i type="int" name="IBRION">    -1</i>
   <i type="int" name="MDALGO">     0</i>
   <i type="int" name="ISIF">     2</i>
   <i name="PSTRESS">      0.00000000</i>
   <i name="EDIFFG">      0.00000010</i>
   <i type="int" name="NFREE">     0</i>
   <i name="POTIM">      0.50000000</i>
   <i name="SMASS">     -3.00000000</i>
   <i name="SCALEE">      1.00000000</i>
  </separator>
  <separator name="ionic md" >
   <i name="TEBEG">      0.00010000</i>
   <i name="TEEND">      0.00010000</i>
   <i type="int" name="NBLOCK">     1</i>
   <i type="int" name="KBLOCK">     1</i>
   <i type="int" name="NPACO">   256</i>
   <i name="APACO">     16.00000000</i>
  </separator>
  <separator name="symmetry" >
   <i type="int" name="ISYM">     0</i>
   <i name="SYMPREC">      0.00001000</i>
  </separator>
  <separator name="dos" >
   <i type="int" name="LORBIT">     0</i>
   <v name="RWIGS">     -1.00000000     -1.00000000     -1.00000000</v>
   <i type="int" name="NEDOS">   301</i>
   <i name="EMIN">     10.00000000</i>
   <i name="EMAX">    -10.00000000</i>
   <i name="EFERMI">      0.00000000</i>
  </separator>
  <separator name="writing" >
   <i type="int" name="NWRITE">     2</i>
   <i type="logical" name="LWAVE"> F  </i>
   <i type="logical" name="LDOWNSAMPLE"> F  </i>
   <i type="logical" name="LCHARG"> F  </i>
   <i type="logical" name="LPARD"> F  </i>
   <i type="logical" name="LVTOT"> F  </i>
   <i type="logical" name="LVHAR"> F  </i>
   <i type="logical" name="LELF"> F  </i>
   <i type="logical" name="LOPTICS"> F  </i>
   <v name="STM">      0.00000000      0.00000000      0.00000000      0.00000000      0.00000000      0.00000000      0.00000000</v>
  </separator>
  <separator name="performance" >
   <i type="int" name="NPAR">     2</i>
   <i type="int" name="NSIM">     4</i>
   <i type="int" name="NBLK">    -1</i>
   <i type="logical" name="LPLANE"> T  </i>
   <i type="logical" name="LSCALAPACK"> T  </i>
   <i type="logical" name="LSCAAWARE"> F  </i>
   <i type="logical" name="LSCALU"> F  </i>
   <i type="logical" name="LASYNC"> F  </i>
   <i type="logical" name="LORBITALREAL"> F  </i>
  </separator>
  <separator name="miscellaneous" >
   <i type="int" name="IDIOT">     3</i>
   <i type="int" name="ISPECIAL">     0</i>
   <i type="logical" name="LMUSIC"> F  </i>
   <v name="POMASS">    118.71000000     28.08500000     24.30500000</v>
   <v name="DARWINR">      0.00000000      0.00000000      0.00000000</v>
   <v name="DARWINV">      1.00000000      1.00000000      1.00000000</v>
   <i type="logical" name="LCORR"> T  </i>
  </separator>
  <i type="logical" name="GGA_COMPAT"> T  </i>
  <i type="logical" name="LBERRY"> F  </i>
  <i type="int" name="ICORELEVEL">     0</i>
  <i type="logical" name="LDAU"> F  </i>
  <i type="int" name="I_CONSTRAINED_M">     0</i>
  <separator name="electronic exchange-correlation" >
   <i type="string" name="GGA">--</i>
   <i type="int" name="VOSKOWN">     0</i>
   <i type="logical" name="LHFCALC"> F  </i>
   <i type="string" name="PRECFOCK"></i>
   <i type="logical" name="LSYMGRAD"> F  </i>
   <i type="logical" name="LHFONE"> F  </i>
   <i type="logical" name="LRHFCALC"> F  </i>
   <i type="logical" name="LTHOMAS"> F  </i>
   <i type="logical" name="LMODELHF"> F  </i>
   <i name="ENCUT4O">     -1.00000000</i>
   <i type="int" name="EXXOEP">     0</i>
   <i type="int" name="FOURORBIT">     0</i>
   <i name="AEXX">      0.00000000</i>
   <i name="HFALPHA">      0.00000000</i>
   <i name="MCALPHA">      0.00000000</i>
   <i name="ALDAX">      1.00000000</i>
   <i name="AGGAX">      1.00000000</i>
   <i name="ALDAC">      1.00000000</i>
   <i name="AGGAC">      1.00000000</i>
   <i type="int" name="NKREDX">     1</i>
   <i type="int" name="NKREDY">     1</i>
   <i type="int" name="NKREDZ">     1</i>
   <i type="logical" name="SHIFTRED"> F  </i>
   <i type="logical" name="ODDONLY"> F  </i>
   <i type="logical" name="EVENONLY"> F  </i>
   <i type="int" name="LMAXFOCK">     0</i>
   <i type="int" name="NMAXFOCKAE">     0</i>
   <i type="logical" name="LFOCKAEDFT"> F  </i>
   <i name="HFSCREEN">      0.00000000</i>
   <i name="HFSCREENC">      0.00000000</i>
   <i type="int" name="NBANDSGWLOW">     0</i>
  </separator>
  <separator name="vdW DFT" >
   <i type="logical" name="LUSE_VDW"> F  </i>
   <i name="Zab_VDW">     -0.84910000</i>
   <i name="PARAM1">      0.12340000</i>
   <i name="PARAM2">      1.00000000</i>
   <i name="PARAM3">      0.00000000</i>
  </separator>
  <separator name="model GW" >
   <i type="int" name="MODEL_GW">     0</i>
   <i name="MODEL_EPS0">     12.94626887</i>
   <i name="MODEL_ALPHA">      1.00000000</i>
  </separator>
  <separator name="linear response parameters" >
   <i type="logical" name="LEPSILON"> F  </i>
   <i type="logical" name="LRPA"> F  </i>
   <i type="logical" name="LNABLA"> F  </i>
   <i type="logical" name="LVEL"> F  </i>
   <i type="int" name="KINTER">     0</i>
   <i name="CSHIFT">      0.10000000</i>
   <i name="OMEGAMAX">     -1.00000000</i>
   <i name="DEG_THRESHOLD">      0.00200000</i>
   <i name="RTIME">     -0.10000000</i>
   <i name="WPLASMAI">      0.00000000</i>
   <v name="DFIELD">      0.00000000      0.00000000      0.00000000</v>
   <v name="WPLASMA">      0.00000000      0.00000000      0.00000000      0.00000000      0.00000000      0.00000000      0.00000000      0.00000000      0.00000000</v>
  </separator>
  <separator name="orbital magnetization" >
   <i type="logical" name="NUCIND"> F  </i>
   <v name="MAGPOS">      0.00000000      0.00000000      0.00000000</v>
   <i type="logical" name="LNICSALL"> T  </i>
   <i type="logical" name="ORBITALMAG"> F  </i>
   <i type="logical" name="LMAGBLOCH"> F  </i>
   <i type="logical" name="LCHIMAG"> F  </i>
   <i type="logical" name="LGAUGE"> T  </i>
   <i type="int" name="MAGATOM">     0</i>
   <v name="MAGDIPOL">      0.00000000      0.00000000      0.00000000</v>
   <v name="AVECCONST">      0.00000000      0.00000000      0.00000000</v>
  </separator>
  <separator name="response functions" >
   <i type="logical" name="LADDER"> F  </i>
   <i type="logical" name="LRPAFORCE"> F  </i>
   <i type="logical" name="LFXC"> F  </i>
   <i type="logical" name="LHARTREE"> T  </i>
   <i type="int" name="IBSE">     0</i>
   <v type="int" name="KPOINT">    -1     0     0     0</v>
   <i type="logical" name="LTCTE"> F  </i>
   <i type="logical" name="LTETE"> F  </i>
   <i type="logical" name="LTRIPLET"> F  </i>
   <i type="logical" name="LFXCEPS"> F  </i>
   <i type="logical" name="LFXHEG"> F  </i>
   <i type="int" name="NATURALO">     2</i>
   <i type="logical" name="L2ORDER"> F  </i>
   <i type="logical" name="LMP2LT"> F  </i>
   <i type="logical" name="LUSEW"> F  </i>
   <i name="ENCUTGW">     -2.00000000</i>
   <i name="ENCUTGWSOFT">     -2.00000000</i>
   <i name="ENCUTLF">     -1.00000000</i>
   <i type="int" name="LMAXMP2">    -1</i>
   <i name="SCISSOR">      0.00000000</i>
   <i type="int" name="NOMEGA">     0</i>
   <i type="int" name="NOMEGAR">     0</i>
   <i type="int" name="NBANDSGW">    -1</i>
   <i type="int" name="NBANDSO">    -1</i>
   <i type="int" name="NBANDSV">    -1</i>
   <i type="int" name="NELM">     1</i>
   <i type="int" name="NELMHF">     1</i>
   <i type="int" name="DIM">     3</i>
   <i type="int" name="ANTIRES">     0</i>
   <i name="OMEGAMAX">    -30.00000000</i>
   <i name="OMEGAMIN">    -30.00000000</i>
   <i name="OMEGATL">   -200.00000000</i>
   <i type="int" name="OMEGAGRID">   140</i>
   <i name="CSHIFT">     -0.10000000</i>
   <i type="logical" name="SELFENERGY"> F  </i>
   <i type="logical" name="LSPECTRAL"> F  </i>
   <i type="logical" name="LSPECTRALGW"> F  </i>
   <i type="logical" name="LSINGLES"> F  </i>
   <i type="logical" name="LFERMIGW"> F  </i>
   <i type="logical" name="ODDONLYGW"> F  </i>
   <i type="logical" name="EVENONLYGW"> F  </i>
   <i type="int" name="NKREDLFX">     1</i>
   <i type="int" name="NKREDLFY">     1</i>
   <i type="int" name="NKREDLFZ">     1</i>
   <i type="int" name="MAXMEM">  2800</i>
   <i type="int" name="TELESCOPE">     0</i>
   <i type="int" name="TAUPAR">     1</i>
   <i type="int" name="OMEGAPAR">    -1</i>
   <i name="LAMBDA">      1.00000000</i>
  </separator>
  <separator name="External order field" >
   <i name="OFIELD_KAPPA">      0.00000000</i>
   <v name="OFIELD_K">      0.00000000      0.00000000      0.00000000</v>
   <i name="OFIELD_Q6_NEAR">      0.00000000</i>
   <i name="OFIELD_Q6_FAR">      0.00000000</i>
   <i name="OFIELD_A">      0.00000000</i>
  </separator>
 </parameters>
 <atominfo>
  <atoms>      96 </atoms>
  <types>       3 </types>
  <array name="atoms" >
   <dimension dim="1">ion</dimension>
   <field type="string">element</field>
   <field type="int">atomtype</field>
   <set>
    <rc><c>Sn</c><c>   1</c></rc>
    <rc><c>Si</c><c>   2</c></rc>
    <rc><c>Si</c><c>   2</c></rc>
    <rc><c>Si</c><c>   2</c></rc>
    <rc><c>Si</c><c>   2</c></rc>
    <rc><c>Si</c><c>   2</c></rc>
    <rc><c>Si</c><c>   2</c></rc>
    <rc><c>Si</c><c>   2</c></rc>
    <rc><c>Si</c><c>   2</c></rc>
    <rc><c>Si</c><c>   2</c></rc>
    <rc><c>Si</c><c>   2</c></rc>
    <rc><c>Si</c><c>   2</c></rc>
    <rc><c>Si</c><c>   2</c></rc>
    <rc><c>Si</c><c>   2</c></rc>
    <rc><c>Si</c><c>   2</c></rc>
    <rc><c>Si</c><c>   2</c></rc>
    <rc><c>Si</c><c>   2</c></rc>
    <rc><c>Si</c><c>   2</c></rc>
    <rc><c>Si</c><c>   2</c></rc>
    <rc><c>Si</c><c>   2</c></rc>
    <rc><c>Si</c><c>   2</c></rc>
    <rc><c>Si</c><c>   2</c></rc>
    <rc><c>Si</c><c>   2</c></rc>
    <rc><c>Si</c><c>   2</c></rc>
    <rc><c>Si</c><c>   2</c></rc>
    <rc><c>Si</c><c>   2</c></rc>
    <rc><c>Si</c><c>   2</c></rc>
    <rc><c>Si</c><c>   2</c></rc>
    <rc><c>Si</c><c>   2</c></rc>
    <rc><c>Si</c><c>   2</c></rc>
    <rc><c>Si</c><c>   2</c></rc>
    <rc><c>Si</c><c>   2</c></rc>
    <rc><c>Mg</c><c>   3</c></rc>
    <rc><c>Mg</c><c>   3</c></rc>
    <rc><c>Mg</c><c>   3</c></rc>
    <rc><c>Mg</c><c>   3</c></rc>
    <rc><c>Mg</c><c>   3</c></rc>
    <rc><c>Mg</c><c>   3</c></rc>
    <rc><c>Mg</c><c>   3</c></rc>
    <rc><c>Mg</c><c>   3</c></rc>
    <rc><c>Mg</c><c>   3</c></rc>
    <rc><c>Mg</c><c>   3</c></rc>
    <rc><c>Mg</c><c>   3</c></rc>
    <rc><c>Mg</c><c>   3</c></rc>
    <rc><c>Mg</c><c>   3</c></rc>
    <rc><c>Mg</c><c>   3</c></rc>
    <rc><c>Mg</c><c>   3</c></rc>
    <rc><c>Mg</c><c>   3</c></rc>
    <rc><c>Mg</c><c>   3</c></rc>
    <rc><c>Mg</c><c>   3</c></rc>
    <rc><c>Mg</c><c>   3</c></rc>
    <rc><c>Mg</c><c>   3</c></rc>
    <rc><c>Mg</c><c>   3</c></rc>
    <rc><c>Mg</c><c>   3</c></rc>
    <rc><c>Mg</c><c>   3</c></rc>
    <rc><c>Mg</c><c>   3</c></rc>
    <rc><c>Mg</c><c>   3</c></rc>
    <rc><c>Mg</c><c>   3</c></rc>
    <rc><c>Mg</c><c>   3</c></rc>
    <rc><c>Mg</c><c>   3</c></rc>
    <rc><c>Mg</c><c>   3</c></rc>
    <rc><c>Mg</c><c>   3</c></rc>
    <rc><c>Mg</c><c>   3</c></rc>
    <rc><c>Mg</c><c>   3</c></rc>
    <rc><c>Mg</c><c>   3</c></rc>
    <rc><c>Mg</c><c>   3</c></rc>
    <rc><c>Mg</c><c>   3</c></rc>
    <rc><c>Mg</c><c>   3</c></rc>
    <rc><c>Mg</c><c>   3</c></rc>
    <rc><c>Mg</c><c>   3</c></rc>
    <rc><c>Mg</c><c>   3</c></rc>
    <rc><c>Mg</c><c>   3</c></rc>
    <rc><c>Mg</c><c>   3</c></rc>
    <rc><c>Mg</c><c>   3</c></rc>
    <rc><c>Mg</c><c>   3</c></rc>
    <rc><c>Mg</c><c>   3</c></rc>
    <rc><c>Mg</c><c>   3</c></rc>
    <rc><c>Mg</c><c>   3</c></rc>
    <rc><c>Mg</c><c>   3</c></rc>
    <rc><c>Mg</c><c>   3</c></rc>
    <rc><c>Mg</c><c>   3</c></rc>
    <rc><c>Mg</c><c>   3</c></rc>
    <rc><c>Mg</c><c>   3</c></rc>
    <rc><c>Mg</c><c>   3</c></rc>
    <rc><c>Mg</c><c>   3</c></rc>
    <rc><c>Mg</c><c>   3</c></rc>
    <rc><c>Mg</c><c>   3</c></rc>
    <rc><c>Mg</c><c>   3</c></rc>
    <rc><c>Mg</c><c>   3</c></rc>
    <rc><c>Mg</c><c>   3</c></rc>
    <rc><c>Mg</c><c>   3</c></rc>
    <rc><c>Mg</c><c>   3</c></rc>
    <rc><c>Mg</c><c>   3</c></rc>
    <rc><c>Mg</c><c>   3</c></rc>
    <rc><c>Mg</c><c>   3</c></rc>
    <rc><c>Mg</c><c>   3</c></rc>
   </set>
  </array>
  <array name="atomtypes" >
   <dimension dim="1">type</dimension>
   <field type="int">atomspertype</field>
   <field type="string">element</field>
   <field>mass</field>
   <field>valence</field>
   <field type="string">pseudopotential</field>
   <set>
    <rc><c>   1</c><c>Sn</c><c>    118.71000000</c><c>      4.00000000</c><c>  PAW_PBE Sn 08Apr2002                  </c></rc>
    <rc><c>  31</c><c>Si</c><c>     28.08500000</c><c>      4.00000000</c><c>  PAW_PBE Si 05Jan2001                  </c></rc>
    <rc><c>  64</c><c>Mg</c><c>     24.30500000</c><c>      2.00000000</c><c>  PAW_PBE Mg 13Apr2007                  </c></rc>
   </set>
  </array>
 </atominfo>
 <structure name="initialpos" >
  <crystal>
   <varray name="basis" >
    <v>      12.74739769       0.00000000       0.00000000 </v>
    <v>       0.00000000      12.74739769       0.00000000 </v>
    <v>       0.00000000       0.00000000      12.74739769 </v>
   </varray>
   <i name="volume">   2071.40301882 </i>
   <varray name="rec_basis" >
    <v>       0.07844738       0.00000000       0.00000000 </v>
    <v>       0.00000000       0.07844738       0.00000000 </v>
    <v>       0.00000000       0.00000000       0.07844738 </v>
   </varray>
  </crystal>
  <varray name="positions" >
   <v>       0.00078447       0.00000000       0.00000000 </v>
   <v>       0.50000000       0.00000000       0.00000000 </v>
   <v>       0.00000000       0.50000000       0.00000000 </v>
   <v>       0.50000000       0.50000000       0.00000000 </v>
   <v>       0.00000000       0.00000000       0.50000000 </v>
   <v>       0.50000000       0.00000000       0.50000000 </v>
   <v>       0.00000000       0.50000000       0.50000000 </v>
   <v>       0.50000000       0.50000000       0.50000000 </v>
   <v>       0.25140293       0.25140293       0.00000000 </v>
   <v>       0.74859707       0.25140293       0.00000000 </v>
   <v>       0.25140293       0.74859707       0.00000000 </v>
   <v>       0.74859707       0.74859707       0.00000000 </v>
   <v>       0.25012668       0.25012668       0.50000000 </v>
   <v>       0.74987332       0.25012668       0.50000000 </v>
   <v>       0.25012668       0.74987332       0.50000000 </v>
   <v>       0.74987332       0.74987332       0.50000000 </v>
   <v>       0.25140293       0.00000000       0.25140293 </v>
   <v>       0.74859707       0.00000000       0.25140293 </v>
   <v>       0.25012668       0.50000000       0.25012668 </v>
   <v>       0.74987332       0.50000000       0.25012668 </v>
   <v>       0.25140293       0.00000000       0.74859707 </v>
   <v>       0.74859707       0.00000000       0.74859707 </v>
   <v>       0.25012668       0.50000000       0.74987332 </v>
   <v>       0.74987332       0.50000000       0.74987332 </v>
   <v>       0.00000000       0.25140293       0.25140293 </v>
   <v>       0.50000000       0.25012668       0.25012668 </v>
   <v>       0.00000000       0.74859707       0.25140293 </v>
   <v>       0.50000000       0.74987332       0.25012668 </v>
   <v>       0.00000000       0.25140293       0.74859707 </v>
   <v>       0.50000000       0.25012668       0.74987332 </v>
   <v>       0.00000000       0.74859707       0.74859707 </v>
   <v>       0.50000000       0.74987332       0.74987332 </v>
   <v>       0.12960836       0.12960836       0.12960836 </v>
   <v>       0.62421357       0.12507203       0.12507203 </v>
   <v>       0.12507203       0.62421357       0.12507203 </v>
   <v>       0.62455273       0.62455273       0.12469540 </v>
   <v>       0.12507203       0.12507203       0.62421357 </v>
   <v>       0.62455273       0.12469540       0.62455273 </v>
   <v>       0.12469540       0.62455273       0.62455273 </v>
   <v>       0.62508239       0.62508239       0.62508239 </v>
   <v>       0.37578643       0.12507203       0.12507203 </v>
   <v>       0.87039164       0.12960836       0.12960836 </v>
   <v>       0.37544727       0.62455273       0.12469540 </v>
   <v>       0.87492797       0.62421357       0.12507203 </v>
   <v>       0.37544727       0.12469540       0.62455273 </v>
   <v>       0.87492797       0.12507203       0.62421357 </v>
   <v>       0.37491761       0.62508239       0.62508239 </v>
   <v>       0.87530460       0.62455273       0.62455273 </v>
   <v>       0.12507203       0.37578643       0.12507203 </v>
   <v>       0.62455273       0.37544727       0.12469540 </v>
   <v>       0.12960836       0.87039164       0.12960836 </v>
   <v>       0.62421357       0.87492797       0.12507203 </v>
   <v>       0.12469540       0.37544727       0.62455273 </v>
   <v>       0.62508239       0.37491761       0.62508239 </v>
   <v>       0.12507203       0.87492797       0.62421357 </v>
   <v>       0.62455273       0.87530460       0.62455273 </v>
   <v>       0.37544727       0.37544727       0.12469540 </v>
   <v>       0.87492797       0.37578643       0.12507203 </v>
   <v>       0.37578643       0.87492797       0.12507203 </v>
   <v>       0.87039164       0.87039164       0.12960836 </v>
   <v>       0.37491761       0.37491761       0.62508239 </v>
   <v>       0.87530460       0.37544727       0.62455273 </v>
   <v>       0.37544727       0.87530460       0.62455273 </v>
   <v>       0.87492797       0.87492797       0.62421357 </v>
   <v>       0.12507203       0.12507203       0.37578643 </v>
   <v>       0.62455273       0.12469540       0.37544727 </v>
   <v>       0.12469540       0.62455273       0.37544727 </v>
   <v>       0.62508239       0.62508239       0.37491761 </v>
   <v>       0.12960836       0.12960836       0.87039164 </v>
   <v>       0.62421357       0.12507203       0.87492797 </v>
   <v>       0.12507203       0.62421357       0.87492797 </v>
   <v>       0.62455273       0.62455273       0.87530460 </v>
   <v>       0.37544727       0.12469540       0.37544727 </v>
   <v>       0.87492797       0.12507203       0.37578643 </v>
   <v>       0.37491761       0.62508239       0.37491761 </v>
   <v>       0.87530460       0.62455273       0.37544727 </v>
   <v>       0.37578643       0.12507203       0.87492797 </v>
   <v>       0.87039164       0.12960836       0.87039164 </v>
   <v>       0.37544727       0.62455273       0.87530460 </v>
   <v>       0.87492797       0.62421357       0.87492797 </v>
   <v>       0.12469540       0.37544727       0.37544727 </v>
   <v>       0.62508239       0.37491761       0.37491761 </v>
   <v>       0.12507203       0.87492797       0.37578643 </v>
   <v>       0.62455273       0.87530460       0.37544727 </v>
   <v>       0.12507203       0.37578643       0.87492797 </v>
   <v>       0.62455273       0.37544727       0.87530460 </v>
   <v>       0.12960836       0.87039164       0.87039164 </v>
   <v>       0.62421357       0.87492797       0.87492797 </v>
   <v>       0.37491761       0.37491761       0.37491761 </v>
   <v>       0.87530460       0.37544727       0.37544727 </v>
   <v>       0.37544727       0.87530460       0.37544727 </v>
   <v>       0.87492797       0.87492797       0.37578643 </v>
   <v>       0.37544727       0.37544727       0.87530460 </v>
   <v>       0.87492797       0.37578643       0.87492797 </v>
   <v>       0.37578643       0.87492797       0.87492797 </v>
   <v>       0.87039164       0.87039164       0.87039164 </v>
  </varray>
 </structure>
 <calculation>
  <scstep>
   <time name="dav">   13.54   13.96</time>
   <time name="total">   14.36   14.79</time>
   <energy>
    <i name="alphaZ">    214.09658884 </i>
    <i name="ewald">  -5218.82793078 </i>
    <i name="hartreedc">   -333.03127552 </i>
    <i name="XCdc">  -3539.85009724 </i>
    <i name="pawpsdc">   7100.88161447 </i>
    <i name="pawaedc">  -3112.42095010 </i>
    <i name="eentropy">     -0.00000000 </i>
    <i name="bandstr">    447.64466189 </i>
    <i name="atom">   4763.39200965 </i>
    <i name="e_fr_energy">    321.88462120 </i>
    <i name="e_wo_entrp">    321.88462120 </i>
    <i name="e_0_energy">    321.88462120 </i>
   </energy>
  </scstep>
  <scstep>
   <time name="dav">   15.78   15.81</time>
   <time name="total">   15.78   15.81</time>
   <energy>
    <i name="e_fr_energy">   -253.38240860 </i>
    <i name="e_wo_entrp">   -253.38240860 </i>
    <i name="e_0_energy">   -253.38240860 </i>
   </energy>
  </scstep>
  <scstep>
   <time name="dav">   15.85   15.88</time>
   <time name="total">   15.85   15.88</time>
   <energy>
    <i name="e_fr_energy">   -296.45463556 </i>
    <i name="e_wo_entrp">   -296.45463556 </i>
    <i name="e_0_energy">   -296.45463556 </i>
   </energy>
  </scstep>
  <scstep>
   <time name="dav">   15.61   15.64</time>
   <time name="total">   15.61   15.64</time>
   <energy>
    <i name="e_fr_energy">   -297.34062576 </i>
    <i name="e_wo_entrp">   -297.34062576 </i>
    <i name="e_0_energy">   -297.34062576 </i>
   </energy>
  </scstep>
  <scstep>
   <time name="dav">   16.07   16.10</time>
   <time name="total">   16.48   16.51</time>
   <energy>
    <i name="e_fr_energy">   -297.36468627 </i>
    <i name="e_wo_entrp">   -297.36468627 </i>
    <i name="e_0_energy">   -297.36468627 </i>
   </energy>
  </scstep>
  <scstep>
   <time name="dav">   13.65   13.68</time>
   <time name="total">   14.87   14.89</time>
   <energy>
    <i name="e_fr_energy">   -280.23914827 </i>
    <i name="e_wo_entrp">   -280.23914827 </i>
    <i name="e_0_energy">   -280.23914827 </i>
   </energy>
  </scstep>
  <scstep>
   <time name="dav">   14.52   14.54</time>
   <time name="total">   15.73   15.76</time>
   <energy>
    <i name="e_fr_energy">   -277.76398316 </i>
    <i name="e_wo_entrp">   -277.76398311 </i>
    <i name="e_0_energy">   -277.76398313 </i>
   </energy>
  </scstep>
  <scstep>
   <time name="dav">   14.65   14.68</time>
   <time name="total">   15.86   15.89</time>
   <energy>
    <i name="e_fr_energy">   -277.76819229 </i>
    <i name="e_wo_entrp">   -277.76819229 </i>
    <i name="e_0_energy">   -277.76819229 </i>
   </energy>
  </scstep>
  <scstep>
   <time name="dav">   15.12   15.14</time>
   <time name="total">   16.33   16.36</time>
   <energy>
    <i name="e_fr_energy">   -277.76488666 </i>
    <i name="e_wo_entrp">   -277.76488666 </i>
    <i name="e_0_energy">   -277.76488666 </i>
   </energy>
  </scstep>
  <scstep>
   <time name="dav">   14.65   14.68</time>
   <time name="total">   15.86   15.90</time>
   <energy>
    <i name="e_fr_energy">   -277.76811619 </i>
    <i name="e_wo_entrp">   -277.76811619 </i>
    <i name="e_0_energy">   -277.76811619 </i>
   </energy>
  </scstep>
  <scstep>
   <time name="dav">   14.88   14.91</time>
   <time name="total">   16.09   16.12</time>
   <energy>
    <i name="e_fr_energy">   -277.76855283 </i>
    <i name="e_wo_entrp">   -277.76855283 </i>
    <i name="e_0_energy">   -277.76855283 </i>
   </energy>
  </scstep>
  <scstep>
   <time name="dav">   16.27   16.30</time>
   <time name="total">   17.48   17.51</time>
   <energy>
    <i name="e_fr_energy">   -277.76845390 </i>
    <i name="e_wo_entrp">   -277.76845390 </i>
    <i name="e_0_energy">   -277.76845390 </i>
   </energy>
  </scstep>
  <scstep>
   <time name="dav">   15.11   15.14</time>
   <time name="total">   16.32   16.35</time>
   <energy>
    <i name="e_fr_energy">   -277.76842786 </i>
    <i name="e_wo_entrp">   -277.76842786 </i>
    <i name="e_0_energy">   -277.76842786 </i>
   </energy>
  </scstep>
  <scstep>
   <time name="dav">   14.88   14.91</time>
   <time name="total">   16.09   16.12</time>
   <energy>
    <i name="e_fr_energy">   -277.76843429 </i>
    <i name="e_wo_entrp">   -277.76843429 </i>
    <i name="e_0_energy">   -277.76843429 </i>
   </energy>
  </scstep>
  <scstep>
   <time name="dav">   14.65   14.68</time>
   <time name="total">   15.86   15.89</time>
   <energy>
    <i name="e_fr_energy">   -277.76843379 </i>
    <i name="e_wo_entrp">   -277.76843379 </i>
    <i name="e_0_energy">   -277.76843379 </i>
   </energy>
  </scstep>
  <scstep>
   <time name="dav">   15.57   15.60</time>
   <time name="total">   16.78   16.81</time>
   <energy>
    <i name="e_fr_energy">   -277.76843406 </i>
    <i name="e_wo_entrp">   -277.76843406 </i>
    <i name="e_0_energy">   -277.76843406 </i>
   </energy>
  </scstep>
  <scstep>
   <time name="dav">   14.41   14.44</time>
   <time name="total">   15.62   15.65</time>
   <energy>
    <i name="e_fr_energy">   -277.76843427 </i>
    <i name="e_wo_entrp">   -277.76843427 </i>
    <i name="e_0_energy">   -277.76843427 </i>
   </energy>
  </scstep>
  <scstep>
   <time name="dav">   13.96   13.98</time>
   <time name="total">   15.17   15.19</time>
   <energy>
    <i name="e_fr_energy">   -277.76843423 </i>
    <i name="e_wo_entrp">   -277.76843423 </i>
    <i name="e_0_energy">   -277.76843423 </i>
   </energy>
  </scstep>
  <scstep>
   <time name="dav">   10.47   10.49</time>
   <time name="total">   11.68   11.71</time>
   <energy>
    <i name="e_fr_energy">   -277.76843427 </i>
    <i name="e_wo_entrp">   -277.76843427 </i>
    <i name="e_0_energy">   -277.76843427 </i>
   </energy>
  </scstep>
  <scstep>
   <time name="dav">   10.02   10.04</time>
   <time name="total">   11.23   11.25</time>
   <energy>
    <i name="e_fr_energy">   -277.76843429 </i>
    <i name="e_wo_entrp">   -277.76843429 </i>
    <i name="e_0_energy">   -277.76843429 </i>
   </energy>
  </scstep>
  <scstep>
   <time name="dav">    9.56    9.58</time>
   <time name="total">   10.36   10.38</time>
   <energy>
    <i name="alphaZ">    214.09658884 </i>
    <i name="ewald">  -5218.82793078 </i>
    <i name="hartreedc">   -486.12796231 </i>
    <i name="XCdc">  -3511.70766215 </i>
    <i name="pawpsdc">  17714.24555020 </i>
    <i name="pawaedc"> -13730.56735472 </i>
    <i name="eentropy">     -0.00000000 </i>
    <i name="bandstr">    -22.27167299 </i>
    <i name="atom">   4763.39200965 </i>
    <i name="e_fr_energy">   -277.76843428 </i>
    <i name="e_wo_entrp">   -277.76843428 </i>
    <i name="e_0_energy">   -277.76843428 </i>
   </energy>
  </scstep>
  <structure>
   <crystal>
    <varray name="basis" >
     <v>      12.74739769       0.00000000       0.00000000 </v>
     <v>       0.00000000      12.74739769       0.00000000 </v>
     <v>       0.00000000       0.00000000      12.74739769 </v>
    </varray>
    <i name="volume">   2071.40301882 </i>
    <varray name="rec_basis" >
     <v>       0.07844738       0.00000000       0.00000000 </v>
     <v>       0.00000000       0.07844738       0.00000000 </v>
     <v>       0.00000000       0.00000000       0.07844738 </v>
    </varray>
   </crystal>
   <varray name="positions" >
    <v>       0.00078447       0.00000000       0.00000000 </v>
    <v>       0.50000000       0.00000000       0.00000000 </v>
    <v>       0.00000000       0.50000000       0.00000000 </v>
    <v>       0.50000000       0.50000000       0.00000000 </v>
    <v>       0.00000000       0.00000000       0.50000000 </v>
    <v>       0.50000000       0.00000000       0.50000000 </v>
    <v>       0.00000000       0.50000000       0.50000000 </v>
    <v>       0.50000000       0.50000000       0.50000000 </v>
    <v>       0.25140293       0.25140293       0.00000000 </v>
    <v>       0.74859707       0.25140293       0.00000000 </v>
    <v>       0.25140293       0.74859707       0.00000000 </v>
    <v>       0.74859707       0.74859707       0.00000000 </v>
    <v>       0.25012668       0.25012668       0.50000000 </v>
    <v>       0.74987332       0.25012668       0.50000000 </v>
    <v>       0.25012668       0.74987332       0.50000000 </v>
    <v>       0.74987332       0.74987332       0.50000000 </v>
    <v>       0.25140293       0.00000000       0.25140293 </v>
    <v>       0.74859707       0.00000000       0.25140293 </v>
    <v>       0.25012668       0.50000000       0.25012668 </v>
    <v>       0.74987332       0.50000000       0.25012668 </v>
    <v>       0.25140293       0.00000000       0.74859707 </v>
    <v>       0.74859707       0.00000000       0.74859707 </v>
    <v>       0.25012668       0.50000000       0.74987332 </v>
    <v>       0.74987332       0.50000000       0.74987332 </v>
    <v>       0.00000000       0.25140293       0.25140293 </v>
    <v>       0.50000000       0.25012668       0.25012668 </v>
    <v>       0.00000000       0.74859707       0.25140293 </v>
    <v>       0.50000000       0.74987332       0.25012668 </v>
    <v>       0.00000000       0.25140293       0.74859707 </v>
    <v>       0.50000000       0.25012668       0.74987332 </v>
    <v>       0.00000000       0.74859707       0.74859707 </v>
    <v>       0.50000000       0.74987332       0.74987332 </v>
    <v>       0.12960836       0.12960836       0.12960836 </v>
    <v>       0.62421357       0.12507203       0.12507203 </v>
    <v>       0.12507203       0.62421357       0.12507203 </v>
    <v>       0.62455273       0.62455273       0.12469540 </v>
    <v>       0.12507203       0.12507203       0.62421357 </v>
    <v>       0.62455273       0.12469540       0.62455273 </v>
    <v>       0.12469540       0.62455273       0.62455273 </v>
    <v>       0.62508239       0.62508239       0.62508239 </v>
    <v>       0.37578643       0.12507203       0.12507203 </v>
    <v>       0.87039164       0.12960836       0.12960836 </v>
    <v>       0.37544727       0.62455273       0.12469540 </v>
    <v>       0.87492797       0.62421357       0.12507203 </v>
    <v>       0.37544727       0.12469540       0.62455273 </v>
    <v>       0.87492797       0.12507203       0.62421357 </v>
    <v>       0.37491761       0.62508239       0.62508239 </v>
    <v>       0.87530460       0.62455273       0.62455273 </v>
    <v>       0.12507203       0.37578643       0.12507203 </v>
    <v>       0.62455273       0.37544727       0.12469540 </v>
    <v>       0.12960836       0.87039164       0.12960836 </v>
    <v>       0.62421357       0.87492797       0.12507203 </v>
    <v>       0.12469540       0.37544727       0.62455273 </v>
    <v>       0.62508239       0.37491761       0.62508239 </v>
    <v>       0.12507203       0.87492797       0.62421357 </v>
    <v>       0.62455273       0.87530460       0.62455273 </v>
    <v>       0.37544727       0.37544727       0.12469540 </v>
    <v>       0.87492797       0.37578643       0.12507203 </v>
    <v>       0.37578643       0.87492797       0.12507203 </v>
    <v>       0.87039164       0.87039164       0.12960836 </v>
    <v>       0.37491761       0.37491761       0.62508239 </v>
    <v>       0.87530460       0.37544727       0.62455273 </v>
    <v>       0.37544727       0.87530460       0.62455273 </v>
    <v>       0.87492797       0.87492797       0.62421357 </v>
    <v>       0.12507203       0.12507203       0.37578643 </v>
    <v>       0.62455273       0.12469540       0.37544727 </v>
    <v>       0.12469540       0.62455273       0.37544727 </v>
    <v>       0.62508239       0.62508239       0.37491761 </v>
    <v>       0.12960836       0.12960836       0.87039164 </v>
    <v>       0.62421357       0.12507203       0.87492797 </v>
    <v>       0.12507203       0.62421357       0.87492797 </v>
    <v>       0.62455273       0.62455273       0.87530460 </v>
    <v>       0.37544727       0.12469540       0.37544727 </v>
    <v>       0.87492797       0.12507203       0.37578643 </v>
    <v>       0.37491761       0.62508239       0.37491761 </v>
    <v>       0.87530460       0.62455273       0.37544727 </v>
    <v>       0.37578643       0.12507203       0.87492797 </v>
    <v>       0.87039164       0.12960836       0.87039164 </v>
    <v>       0.37544727       0.62455273       0.87530460 </v>
    <v>       0.87492797       0.62421357       0.87492797 </v>
    <v>       0.12469540       0.37544727       0.37544727 </v>
    <v>       0.62508239       0.37491761       0.37491761 </v>
    <v>       0.12507203       0.87492797       0.37578643 </v>
    <v>       0.62455273       0.87530460       0.37544727 </v>
    <v>       0.12507203       0.37578643       0.87492797 </v>
    <v>       0.62455273       0.37544727       0.87530460 </v>
    <v>       0.12960836       0.87039164       0.87039164 </v>
    <v>       0.62421357       0.87492797       0.87492797 </v>
    <v>       0.37491761       0.37491761       0.37491761 </v>
    <v>       0.87530460       0.37544727       0.37544727 </v>
    <v>       0.37544727       0.87530460       0.37544727 </v>
    <v>       0.87492797       0.87492797       0.37578643 </v>
    <v>       0.37544727       0.37544727       0.87530460 </v>
    <v>       0.87492797       0.37578643       0.87492797 </v>
    <v>       0.37578643       0.87492797       0.87492797 </v>
    <v>       0.87039164       0.87039164       0.87039164 </v>
   </varray>
  </structure>
  <varray name="forces" >
   <v>      -0.06533555      -0.00000012      -0.00000012 </v>
   <v>       0.00262013       0.00000002      -0.00000004 </v>
   <v>       0.00129134      -0.00000002       0.00000004 </v>
   <v>       0.00717469       0.00000000      -0.00000000 </v>
   <v>       0.00129140      -0.00000006       0.00000003 </v>
   <v>       0.00717460      -0.00000001       0.00000002 </v>
   <v>       0.00342061      -0.00000001      -0.00000003 </v>
   <v>       0.00313423       0.00000005      -0.00000001 </v>
   <v>       0.00667464       0.00987222       0.00000042 </v>
   <v>      -0.00599896       0.00281478       0.00000001 </v>
   <v>       0.00667462      -0.00987223       0.00000000 </v>
   <v>      -0.00599891      -0.00281478      -0.00000042 </v>
   <v>      -0.00490363      -0.00312138       0.00000007 </v>
   <v>       0.00200659      -0.00379570       0.00000006 </v>
   <v>      -0.00490362       0.00312140      -0.00000007 </v>
   <v>       0.00200658       0.00379572      -0.00000007 </v>
   <v>       0.00667457      -0.00000001       0.00987242 </v>
   <v>      -0.00599886      -0.00000002       0.00281446 </v>
   <v>      -0.00490357       0.00000004      -0.00312131 </v>
   <v>       0.00200654       0.00000005      -0.00379572 </v>
   <v>       0.00667456      -0.00000000      -0.00987194 </v>
   <v>      -0.00599892      -0.00000004      -0.00281492 </v>
   <v>      -0.00490354      -0.00000003       0.00312135 </v>
   <v>       0.00200651      -0.00000002       0.00379566 </v>
   <v>      -0.00236268       0.00633509       0.00633525 </v>
   <v>      -0.00012026      -0.00346039      -0.00346044 </v>
   <v>      -0.00236271      -0.00633509       0.00633489 </v>
   <v>      -0.00012027       0.00346036      -0.00346038 </v>
   <v>      -0.00236269       0.00633508      -0.00633484 </v>
   <v>      -0.00012025      -0.00346038       0.00346045 </v>
   <v>      -0.00236272      -0.00633505      -0.00633528 </v>
   <v>      -0.00012022       0.00346041       0.00346037 </v>
   <v>      -0.00714220      -0.00824916      -0.00824906 </v>
   <v>      -0.00214557       0.00049084       0.00049078 </v>
   <v>       0.00114203      -0.00140087       0.00006884 </v>
   <v>      -0.00103496      -0.00077950       0.00014469 </v>
   <v>       0.00114228       0.00006931      -0.00140136 </v>
   <v>      -0.00103495       0.00014509      -0.00077998 </v>
   <v>      -0.00007920      -0.00065938      -0.00065975 </v>
   <v>      -0.00110285      -0.00090316      -0.00090364 </v>
   <v>       0.00099438       0.00055148       0.00055160 </v>
   <v>       0.02249954      -0.02129516      -0.02129500 </v>
   <v>      -0.00009008      -0.00017820      -0.00083457 </v>
   <v>       0.00008590      -0.00175012       0.00097395 </v>
   <v>      -0.00009005      -0.00083499      -0.00017788 </v>
   <v>       0.00008562       0.00097348      -0.00174968 </v>
   <v>       0.00068141      -0.00089248      -0.00089197 </v>
   <v>       0.00060016      -0.00029878      -0.00029836 </v>
   <v>       0.00114166       0.00140086       0.00006878 </v>
   <v>      -0.00103586       0.00077945       0.00014475 </v>
   <v>      -0.00714219       0.00824920      -0.00824916 </v>
   <v>      -0.00214644      -0.00049080       0.00049077 </v>
   <v>      -0.00008003       0.00065934      -0.00065978 </v>
   <v>      -0.00110369       0.00090315      -0.00090368 </v>
   <v>       0.00114136      -0.00006925      -0.00140133 </v>
   <v>      -0.00103586      -0.00014507      -0.00077995 </v>
   <v>      -0.00008916       0.00017817      -0.00083450 </v>
   <v>       0.00008626       0.00175009       0.00097389 </v>
   <v>       0.00099524      -0.00055145       0.00055157 </v>
   <v>       0.02249951       0.02129519      -0.02129507 </v>
   <v>       0.00068226       0.00089246      -0.00089201 </v>
   <v>       0.00060100       0.00029875      -0.00029838 </v>
   <v>      -0.00008912       0.00083502      -0.00017783 </v>
   <v>       0.00008652      -0.00097343      -0.00174964 </v>
   <v>       0.00114140       0.00006839       0.00140131 </v>
   <v>      -0.00103584       0.00014424       0.00077991 </v>
   <v>      -0.00008007      -0.00066025       0.00065979 </v>
   <v>      -0.00110374      -0.00090407       0.00090361 </v>
   <v>      -0.00714223      -0.00824914       0.00824919 </v>
   <v>      -0.00214649       0.00049048      -0.00049063 </v>
   <v>       0.00114170      -0.00140177      -0.00006879 </v>
   <v>      -0.00103584      -0.00078036      -0.00014468 </v>
   <v>      -0.00008915      -0.00083410       0.00017781 </v>
   <v>       0.00008648       0.00097433       0.00174964 </v>
   <v>       0.00068235      -0.00089157       0.00089200 </v>
   <v>       0.00060099      -0.00029794       0.00029835 </v>
   <v>       0.00099526       0.00055178      -0.00055163 </v>
   <v>       0.02249959      -0.02129509       0.02129504 </v>
   <v>      -0.00008923      -0.00017736       0.00083455 </v>
   <v>       0.00008626      -0.00174920      -0.00097383 </v>
   <v>      -0.00007919       0.00066020       0.00065982 </v>
   <v>      -0.00110282       0.00090401       0.00090360 </v>
   <v>       0.00114229      -0.00006834       0.00140131 </v>
   <v>      -0.00103495      -0.00014418       0.00077990 </v>
   <v>       0.00114202       0.00140176      -0.00006891 </v>
   <v>      -0.00103495       0.00078036      -0.00014466 </v>
   <v>      -0.00714224       0.00824918       0.00824919 </v>
   <v>      -0.00214560      -0.00049050      -0.00049064 </v>
   <v>       0.00068143       0.00089151       0.00089199 </v>
   <v>       0.00060012       0.00029787       0.00029836 </v>
   <v>      -0.00009005       0.00083417       0.00017778 </v>
   <v>       0.00008559      -0.00097428       0.00174963 </v>
   <v>      -0.00009009       0.00017738       0.00083455 </v>
   <v>       0.00008592       0.00174918      -0.00097394 </v>
   <v>       0.00099436      -0.00055179      -0.00055161 </v>
   <v>       0.02249959       0.02129513       0.02129500 </v>
  </varray>
  <varray name="stress" >
   <v>      -1.01907626      -0.00000002      -0.00000024 </v>
   <v>       0.00000001      -1.01792789       0.00000015 </v>
   <v>      -0.00000027      -0.00000006      -1.01792769 </v>
  </varray>
  <energy>
   <i name="e_fr_energy">   -277.76843428 </i>
   <i name="e_wo_entrp">   -277.76843428 </i>
   <i name="e_0_energy">     -0.00000000 </i>
  </energy>
  <time name="totalsc">  353.71  354.94</time>
  <eigenvalues>
   <array>
    <dimension dim="1">band</dimension>
    <dimension dim="2">kpoint</dimension>
    <dimension dim="3">spin</dimension>
    <field>eigene</field>
    <field>occ</field>
    <set>
     <set comment="spin 1">
      <set comment="kpoint 1">
       <r>   -5.4896    1.0000 </r>
       <r>   -4.7780    1.0000 </r>
       <r>   -4.7780    1.0000 </r>
       <r>   -4.7689    1.0000 </r>
       <r>   -4.7689    1.0000 </r>
       <r>   -4.7689    1.0000 </r>
       <r>   -4.7409    1.0000 </r>
       <r>   -4.2065    1.0000 </r>
       <r>   -4.2065    1.0000 </r>
       <r>   -4.2003    1.0000 </r>
       <r>   -4.2003    1.0000 </r>
       <r>   -4.2003    1.0000 </r>
       <r>   -4.1952    1.0000 </r>
       <r>   -4.1952    1.0000 </r>
       <r>   -4.1952    1.0000 </r>
       <r>   -4.1855    1.0000 </r>
       <r>   -4.1854    1.0000 </r>
       <r>   -4.1854    1.0000 </r>
       <r>   -4.1417    1.0000 </r>
       <r>   -4.0661    1.0000 </r>
       <r>   -4.0661    1.0000 </r>
       <r>   -4.0661    1.0000 </r>
       <r>   -4.0497    1.0000 </r>
       <r>   -3.5079    1.0000 </r>
       <r>   -3.5079    1.0000 </r>
       <r>   -3.4980    1.0000 </r>
       <r>   -3.4675    1.0000 </r>
       <r>   -3.4675    1.0000 </r>
       <r>   -3.4601    1.0000 </r>
       <r>   -3.4601    1.0000 </r>
       <r>   -3.4601    1.0000 </r>
       <r>   -3.3909    1.0000 </r>
       <r>   -1.1929    1.0000 </r>
       <r>   -1.1580    1.0000 </r>
       <r>   -1.1580    1.0000 </r>
       <r>   -1.1580    1.0000 </r>
       <r>   -0.8439    1.0000 </r>
       <r>   -0.8439    1.0000 </r>
       <r>   -0.8439    1.0000 </r>
       <r>   -0.0448    1.0000 </r>
       <r>   -0.0448    1.0000 </r>
       <r>   -0.0448    1.0000 </r>
       <r>   -0.0339    1.0000 </r>
       <r>   -0.0339    1.0000 </r>
       <r>   -0.0339    1.0000 </r>
       <r>   -0.0257    1.0000 </r>
       <r>   -0.0257    1.0000 </r>
       <r>   -0.0257    1.0000 </r>
       <r>   -0.0003    1.0000 </r>
       <r>   -0.0003    1.0000 </r>
       <r>   -0.0003    1.0000 </r>
       <r>    0.0106    1.0000 </r>
       <r>    0.0107    1.0000 </r>
       <r>    0.0112    1.0000 </r>
       <r>    0.0112    1.0000 </r>
       <r>    0.0113    1.0000 </r>
       <r>    0.0143    1.0000 </r>
       <r>    0.0143    1.0000 </r>
       <r>    0.0143    1.0000 </r>
       <r>    0.0536    1.0000 </r>
       <r>    0.0539    1.0000 </r>
       <r>    0.0539    1.0000 </r>
       <r>    0.0688    1.0000 </r>
       <r>    0.7626    1.0000 </r>
       <r>    0.7626    1.0000 </r>
       <r>    0.7690    1.0000 </r>
       <r>    0.7837    1.0000 </r>
       <r>    0.7837    1.0000 </r>
       <r>    0.7837    1.0000 </r>
       <r>    0.8011    1.0000 </r>
       <r>    0.8011    1.0000 </r>
       <r>    0.8017    1.0000 </r>
       <r>    0.8020    1.0000 </r>
       <r>    0.8025    1.0000 </r>
       <r>    0.8025    1.0000 </r>
       <r>    0.9186    1.0000 </r>
       <r>    0.9355    1.0000 </r>
       <r>    0.9355    1.0000 </r>
       <r>    0.9355    1.0000 </r>
       <r>    0.9578    1.0000 </r>
       <r>    0.9578    1.0000 </r>
       <r>    1.1735    1.0000 </r>
       <r>    1.1736    1.0000 </r>
       <r>    1.1739    1.0000 </r>
       <r>    1.1739    1.0000 </r>
       <r>    1.1740    1.0000 </r>
       <r>    1.2244    1.0000 </r>
       <r>    1.6500    1.0000 </r>
       <r>    1.6500    1.0000 </r>
       <r>    1.6500    1.0000 </r>
       <r>    1.6527    1.0000 </r>
       <r>    1.6527    1.0000 </r>
       <r>    1.6527    1.0000 </r>
       <r>    2.3241    1.0000 </r>
       <r>    2.3241    1.0000 </r>
       <r>    2.3241    1.0000 </r>
       <r>    2.3310    1.0000 </r>
       <r>    2.3310    1.0000 </r>
       <r>    2.3312    1.0000 </r>
       <r>    2.3312    1.0000 </r>
       <r>    2.3314    1.0000 </r>
       <r>    2.3314    1.0000 </r>
       <r>    2.3812    1.0000 </r>
       <r>    2.3812    1.0000 </r>
       <r>    2.3812    1.0000 </r>
       <r>    2.7668    1.0000 </r>
       <r>    2.7668    1.0000 </r>
       <r>    2.7668    1.0000 </r>
       <r>    2.7793    1.0000 </r>
       <r>    2.7793    1.0000 </r>
       <r>    2.7793    1.0000 </r>
       <r>    2.7879    1.0000 </r>
       <r>    2.7952    1.0000 </r>
       <r>    2.7952    1.0000 </r>
       <r>    2.8223    1.0000 </r>
       <r>    2.8223    1.0000 </r>
       <r>    2.8223    1.0000 </r>
       <r>    2.8683    1.0000 </r>
       <r>    2.8683    1.0000 </r>
       <r>    2.8949    1.0000 </r>
       <r>    2.8949    1.0000 </r>
       <r>    2.8949    1.0000 </r>
       <r>    2.9792    1.0000 </r>
       <r>    2.9792    1.0000 </r>
       <r>    2.9792    1.0000 </r>
       <r>    3.6212    1.0000 </r>
       <r>    3.6212    1.0000 </r>
       <r>    3.6212    1.0000 </r>
       <r>    3.7507    0.0000 </r>
       <r>    3.7931    0.0000 </r>
       <r>    3.7931    0.0000 </r>
       <r>    3.9521    0.0000 </r>
       <r>    3.9521    0.0000 </r>
       <r>    3.9521    0.0000 </r>
       <r>    4.7270    0.0000 </r>
       <r>    4.7270    0.0000 </r>
       <r>    4.7591    0.0000 </r>
       <r>    4.7591    0.0000 </r>
       <r>    4.7591    0.0000 </r>
       <r>    4.7621    0.0000 </r>
       <r>    4.8109    0.0000 </r>
       <r>    4.8109    0.0000 </r>
       <r>    4.8109    0.0000 </r>
       <r>    4.8421    0.0000 </r>
       <r>    5.3097    0.0000 </r>
       <r>    5.3097    0.0000 </r>
       <r>    5.3097    0.0000 </r>
       <r>    5.3202    0.0000 </r>
       <r>    5.3202    0.0000 </r>
       <r>    5.3252    0.0000 </r>
       <r>    5.3252    0.0000 </r>
       <r>    5.3252    0.0000 </r>
       <r>    5.3335    0.0000 </r>
       <r>    5.3649    0.0000 </r>
       <r>    5.3649    0.0000 </r>
       <r>    5.3649    0.0000 </r>
       <r>    5.3733    0.0000 </r>
       <r>    5.3733    0.0000 </r>
       <r>    5.3733    0.0000 </r>
       <r>    5.3740    0.0000 </r>
       <r>    5.4337    0.0000 </r>
       <r>    5.4337    0.0000 </r>
       <r>    5.5273    0.0000 </r>
       <r>    6.0784    0.0000 </r>
       <r>    6.0784    0.0000 </r>
       <r>    6.0784    0.0000 </r>
       <r>    6.1002    0.0000 </r>
       <r>    6.1002    0.0000 </r>
       <r>    6.1002    0.0000 </r>
       <r>    6.1460    0.0000 </r>
       <r>    6.1460    0.0000 </r>
       <r>    6.1490    0.0000 </r>
       <r>    6.1490    0.0000 </r>
       <r>    6.1491    0.0000 </r>
       <r>    6.2468    0.0000 </r>
       <r>    6.2497    0.0000 </r>
       <r>    6.2571    0.0000 </r>
       <r>    6.2743    0.0000 </r>
      </set>
     </set>
    </set>
   </array>
  </eigenvalues>
  <separator name="orbital magnetization" >
   <v name="MAGDIPOLOUT">      0.00000000      0.00000000      0.00000000</v>
  </separator>
  <dos>
   <i name="efermi">      3.68135753 </i>
   <total>
    <array>
     <dimension dim="1">gridpoints</dimension>
     <dimension dim="2">spin</dimension>
     <field>energy</field>
     <field>total</field>
     <field>integrated</field>
     <set>
      <set comment="spin 1">
       <r>    -6.0778     0.0000     0.0000 </r>
       <r>    -6.0346     0.0000     0.0000 </r>
       <r>    -5.9915     0.0000     0.0000 </r>
       <r>    -5.9484     0.0000     0.0000 </r>
       <r>    -5.9052     0.0000     0.0000 </r>
       <r>    -5.8621     0.0000     0.0000 </r>
       <r>    -5.8190     0.0000     0.0000 </r>
       <r>    -5.7758     0.0000     0.0000 </r>
       <r>    -5.7327     0.0000     0.0000 </r>
       <r>    -5.6896     0.0000     0.0000 </r>
       <r>    -5.6464     0.0000     0.0000 </r>
       <r>    -5.6033     0.0000     0.0000 </r>
       <r>    -5.5602     0.0000     0.0000 </r>
       <r>    -5.5170     0.0024     0.0001 </r>
       <r>    -5.4739    45.7492     1.9735 </r>
       <r>    -5.4308     0.6153     2.0000 </r>
       <r>    -5.3876     0.0000     2.0000 </r>
       <r>    -5.3445     0.0000     2.0000 </r>
       <r>    -5.3014     0.0000     2.0000 </r>
       <r>    -5.2582     0.0000     2.0000 </r>
       <r>    -5.2151     0.0000     2.0000 </r>
       <r>    -5.1720     0.0000     2.0000 </r>
       <r>    -5.1288     0.0000     2.0000 </r>
       <r>    -5.0857     0.0000     2.0000 </r>
       <r>    -5.0425     0.0000     2.0000 </r>
       <r>    -4.9994     0.0000     2.0000 </r>
       <r>    -4.9563     0.0000     2.0000 </r>
       <r>    -4.9131     0.0000     2.0000 </r>
       <r>    -4.8700     0.0000     2.0000 </r>
       <r>    -4.8269     0.0000     2.0000 </r>
       <r>    -4.7837    21.8580     2.9428 </r>
       <r>    -4.7406   233.9383    13.0336 </r>
       <r>    -4.6975    22.4048    14.0000 </r>
       <r>    -4.6543     0.0000    14.0000 </r>
       <r>    -4.6112     0.0000    14.0000 </r>
       <r>    -4.5681     0.0000    14.0000 </r>
       <r>    -4.5249     0.0000    14.0000 </r>
       <r>    -4.4818     0.0000    14.0000 </r>
       <r>    -4.4387     0.0000    14.0000 </r>
       <r>    -4.3955     0.0000    14.0000 </r>
       <r>    -4.3524     0.0000    14.0000 </r>
       <r>    -4.3093     0.0000    14.0000 </r>
       <r>    -4.2661     0.0000    14.0000 </r>
       <r>    -4.2230     1.0199    14.0440 </r>
       <r>    -4.1799   476.8163    34.6111 </r>
       <r>    -4.1367    67.3841    37.5177 </r>
       <r>    -4.0936    11.1889    38.0003 </r>
       <r>    -4.0505   158.3368    44.8300 </r>
       <r>    -4.0073    27.1236    46.0000 </r>
       <r>    -3.9642     0.0000    46.0000 </r>
       <r>    -3.9211     0.0000    46.0000 </r>
       <r>    -3.8779     0.0000    46.0000 </r>
       <r>    -3.8348     0.0000    46.0000 </r>
       <r>    -3.7917     0.0000    46.0000 </r>
       <r>    -3.7485     0.0000    46.0000 </r>
       <r>    -3.7054     0.0000    46.0000 </r>
       <r>    -3.6623     0.0000    46.0000 </r>
       <r>    -3.6191     0.0000    46.0000 </r>
       <r>    -3.5760     0.0000    46.0000 </r>
       <r>    -3.5328     0.0192    46.0008 </r>
       <r>    -3.4897   133.0278    51.7389 </r>
       <r>    -3.4466   233.8872    61.8274 </r>
       <r>    -3.4034     5.7425    62.0751 </r>
       <r>    -3.3603    44.6246    64.0000 </r>
       <r>    -3.3172     0.0004    64.0000 </r>
       <r>    -3.2740     0.0000    64.0000 </r>
       <r>    -3.2309     0.0000    64.0000 </r>
       <r>    -3.1878     0.0000    64.0000 </r>
       <r>    -3.1446     0.0000    64.0000 </r>
       <r>    -3.1015     0.0000    64.0000 </r>
       <r>    -3.0584     0.0000    64.0000 </r>
       <r>    -3.0152     0.0000    64.0000 </r>
       <r>    -2.9721     0.0000    64.0000 </r>
       <r>    -2.9290     0.0000    64.0000 </r>
       <r>    -2.8858     0.0000    64.0000 </r>
       <r>    -2.8427     0.0000    64.0000 </r>
       <r>    -2.7996     0.0000    64.0000 </r>
       <r>    -2.7564     0.0000    64.0000 </r>
       <r>    -2.7133     0.0000    64.0000 </r>
       <r>    -2.6702     0.0000    64.0000 </r>
       <r>    -2.6270     0.0000    64.0000 </r>
       <r>    -2.5839     0.0000    64.0000 </r>
       <r>    -2.5408     0.0000    64.0000 </r>
       <r>    -2.4976     0.0000    64.0000 </r>
       <r>    -2.4545     0.0000    64.0000 </r>
       <r>    -2.4114     0.0000    64.0000 </r>
       <r>    -2.3682     0.0000    64.0000 </r>
       <r>    -2.3251     0.0000    64.0000 </r>
       <r>    -2.2820     0.0000    64.0000 </r>
       <r>    -2.2388     0.0000    64.0000 </r>
       <r>    -2.1957     0.0000    64.0000 </r>
       <r>    -2.1526     0.0000    64.0000 </r>
       <r>    -2.1094     0.0000    64.0000 </r>
       <r>    -2.0663     0.0000    64.0000 </r>
       <r>    -2.0231     0.0000    64.0000 </r>
       <r>    -1.9800     0.0000    64.0000 </r>
       <r>    -1.9369     0.0000    64.0000 </r>
       <r>    -1.8937     0.0000    64.0000 </r>
       <r>    -1.8506     0.0000    64.0000 </r>
       <r>    -1.8075     0.0000    64.0000 </r>
       <r>    -1.7643     0.0000    64.0000 </r>
       <r>    -1.7212     0.0000    64.0000 </r>
       <r>    -1.6781     0.0000    64.0000 </r>
       <r>    -1.6349     0.0000    64.0000 </r>
       <r>    -1.5918     0.0000    64.0000 </r>
       <r>    -1.5487     0.0000    64.0000 </r>
       <r>    -1.5055     0.0000    64.0000 </r>
       <r>    -1.4624     0.0000    64.0000 </r>
       <r>    -1.4193     0.0000    64.0000 </r>
       <r>    -1.3761     0.0000    64.0000 </r>
       <r>    -1.3330     0.0000    64.0000 </r>
       <r>    -1.2899     0.0000    64.0000 </r>
       <r>    -1.2467     0.0000    64.0000 </r>
       <r>    -1.2036     3.0288    64.1306 </r>
       <r>    -1.1605    93.9086    68.1813 </r>
       <r>    -1.1173    88.5300    72.0000 </r>
       <r>    -1.0742     0.0000    72.0000 </r>
       <r>    -1.0311     0.0000    72.0000 </r>
       <r>    -0.9879     0.0000    72.0000 </r>
       <r>    -0.9448     0.0000    72.0000 </r>
       <r>    -0.9017     0.0000    72.0000 </r>
       <r>    -0.8585     2.7117    72.1170 </r>
       <r>    -0.8154   136.3851    77.9998 </r>
       <r>    -0.7723     0.0038    78.0000 </r>
       <r>    -0.7291     0.0000    78.0000 </r>
       <r>    -0.6860     0.0000    78.0000 </r>
       <r>    -0.6429     0.0000    78.0000 </r>
       <r>    -0.5997     0.0000    78.0000 </r>
       <r>    -0.5566     0.0000    78.0000 </r>
       <r>    -0.5135     0.0000    78.0000 </r>
       <r>    -0.4703     0.0000    78.0000 </r>
       <r>    -0.4272     0.0000    78.0000 </r>
       <r>    -0.3840     0.0000    78.0000 </r>
       <r>    -0.3409     0.0000    78.0000 </r>
       <r>    -0.2978     0.0000    78.0000 </r>
       <r>    -0.2546     0.0000    78.0000 </r>
       <r>    -0.2115     0.0000    78.0000 </r>
       <r>    -0.1684     0.0000    78.0000 </r>
       <r>    -0.1252     0.0000    78.0000 </r>
       <r>    -0.0821     0.0000    78.0000 </r>
       <r>    -0.0390   147.3734    84.3568 </r>
       <r>     0.0042   421.7670   102.5495 </r>
       <r>     0.0473   383.0643   119.0727 </r>
       <r>     0.0904   160.5488   125.9978 </r>
       <r>     0.1336     0.0507   126.0000 </r>
       <r>     0.1767     0.0000   126.0000 </r>
       <r>     0.2198     0.0000   126.0000 </r>
       <r>     0.2630     0.0000   126.0000 </r>
       <r>     0.3061     0.0000   126.0000 </r>
       <r>     0.3492     0.0000   126.0000 </r>
       <r>     0.3924     0.0000   126.0000 </r>
       <r>     0.4355     0.0000   126.0000 </r>
       <r>     0.4786     0.0000   126.0000 </r>
       <r>     0.5218     0.0000   126.0000 </r>
       <r>     0.5649     0.0000   126.0000 </r>
       <r>     0.6080     0.0000   126.0000 </r>
       <r>     0.6512     0.0000   126.0000 </r>
       <r>     0.6943     0.0000   126.0000 </r>
       <r>     0.7374     0.0175   126.0008 </r>
       <r>     0.7806   182.0657   133.8540 </r>
       <r>     0.8237   374.0364   149.9878 </r>
       <r>     0.8668     0.2825   150.0000 </r>
       <r>     0.9100     5.1523   150.2222 </r>
       <r>     0.9531   202.8596   158.9724 </r>
       <r>     0.9962    70.1891   162.0000 </r>
       <r>     1.0394     0.0000   162.0000 </r>
       <r>     1.0825     0.0000   162.0000 </r>
       <r>     1.1257     0.0000   162.0000 </r>
       <r>     1.1688    55.9712   164.4143 </r>
       <r>     1.2119   177.6805   172.0784 </r>
       <r>     1.2551    44.5490   174.0000 </r>
       <r>     1.2982     0.0003   174.0000 </r>
       <r>     1.3413     0.0000   174.0000 </r>
       <r>     1.3845     0.0000   174.0000 </r>
       <r>     1.4276     0.0000   174.0000 </r>
       <r>     1.4707     0.0000   174.0000 </r>
       <r>     1.5139     0.0000   174.0000 </r>
       <r>     1.5570     0.0000   174.0000 </r>
       <r>     1.6001     0.0000   174.0000 </r>
       <r>     1.6433    36.3533   175.5681 </r>
       <r>     1.6864   241.8476   186.0000 </r>
       <r>     1.7295     0.0001   186.0000 </r>
       <r>     1.7727     0.0000   186.0000 </r>
       <r>     1.8158     0.0000   186.0000 </r>
       <r>     1.8589     0.0000   186.0000 </r>
       <r>     1.9021     0.0000   186.0000 </r>
       <r>     1.9452     0.0000   186.0000 </r>
       <r>     1.9883     0.0000   186.0000 </r>
       <r>     2.0315     0.0000   186.0000 </r>
       <r>     2.0746     0.0000   186.0000 </r>
       <r>     2.1177     0.0000   186.0000 </r>
       <r>     2.1609     0.0000   186.0000 </r>
       <r>     2.2040     0.0000   186.0000 </r>
       <r>     2.2471     0.0000   186.0000 </r>
       <r>     2.2903     0.0001   186.0000 </r>
       <r>     2.3334   299.2476   198.9078 </r>
       <r>     2.3765   153.3857   205.5240 </r>
       <r>     2.4197   103.7688   210.0000 </r>
       <r>     2.4628     0.0000   210.0000 </r>
       <r>     2.5059     0.0000   210.0000 </r>
       <r>     2.5491     0.0000   210.0000 </r>
       <r>     2.5922     0.0000   210.0000 </r>
       <r>     2.6354     0.0000   210.0000 </r>
       <r>     2.6785     0.0000   210.0000 </r>
       <r>     2.7216     0.0000   210.0000 </r>
       <r>     2.7648    56.4491   212.4349 </r>
       <r>     2.8079   360.2851   227.9755 </r>
       <r>     2.8510   140.3363   234.0288 </r>
       <r>     2.8942   155.9744   240.7567 </r>
       <r>     2.9373    75.1915   244.0000 </r>
       <r>     2.9804    79.1927   247.4159 </r>
       <r>     3.0236    59.9078   250.0000 </r>
       <r>     3.0667     0.0000   250.0000 </r>
       <r>     3.1098     0.0000   250.0000 </r>
       <r>     3.1530     0.0000   250.0000 </r>
       <r>     3.1961     0.0000   250.0000 </r>
       <r>     3.2392     0.0000   250.0000 </r>
       <r>     3.2824     0.0000   250.0000 </r>
       <r>     3.3255     0.0000   250.0000 </r>
       <r>     3.3686     0.0000   250.0000 </r>
       <r>     3.4118     0.0000   250.0000 </r>
       <r>     3.4549     0.0000   250.0000 </r>
       <r>     3.4980     0.0000   250.0000 </r>
       <r>     3.5412     0.0000   250.0000 </r>
       <r>     3.5843     0.0000   250.0000 </r>
       <r>     3.6274   113.0857   254.8779 </r>
       <r>     3.6706    26.0148   256.0000 </r>
       <r>     3.7137     0.0000   256.0000 </r>
       <r>     3.7568    37.4886   257.6170 </r>
       <r>     3.8000    86.2800   261.3387 </r>
       <r>     3.8431    15.3319   262.0000 </r>
       <r>     3.8862     0.0000   262.0000 </r>
       <r>     3.9294     0.0894   262.0039 </r>
       <r>     3.9725   138.7354   267.9881 </r>
       <r>     4.0156     0.2757   268.0000 </r>
       <r>     4.0588     0.0000   268.0000 </r>
       <r>     4.1019     0.0000   268.0000 </r>
       <r>     4.1451     0.0000   268.0000 </r>
       <r>     4.1882     0.0000   268.0000 </r>
       <r>     4.2313     0.0000   268.0000 </r>
       <r>     4.2745     0.0000   268.0000 </r>
       <r>     4.3176     0.0000   268.0000 </r>
       <r>     4.3607     0.0000   268.0000 </r>
       <r>     4.4039     0.0000   268.0000 </r>
       <r>     4.4470     0.0000   268.0000 </r>
       <r>     4.4901     0.0000   268.0000 </r>
       <r>     4.5333     0.0000   268.0000 </r>
       <r>     4.5764     0.0000   268.0000 </r>
       <r>     4.6195     0.0000   268.0000 </r>
       <r>     4.6627     0.0000   268.0000 </r>
       <r>     4.7058     0.1236   268.0053 </r>
       <r>     4.7489   104.4400   272.5103 </r>
       <r>     4.7921   174.1836   280.0236 </r>
       <r>     4.8352   146.0902   286.3250 </r>
       <r>     4.8783    38.8311   288.0000 </r>
       <r>     4.9215     0.0000   288.0000 </r>
       <r>     4.9646     0.0000   288.0000 </r>
       <r>     5.0077     0.0000   288.0000 </r>
       <r>     5.0509     0.0000   288.0000 </r>
       <r>     5.0940     0.0000   288.0000 </r>
       <r>     5.1371     0.0000   288.0000 </r>
       <r>     5.1803     0.0000   288.0000 </r>
       <r>     5.2234     0.0000   288.0000 </r>
       <r>     5.2665     0.0000   288.0000 </r>
       <r>     5.3097    77.3005   291.3343 </r>
       <r>     5.3528   346.3093   306.2721 </r>
       <r>     5.3959   318.1224   319.9941 </r>
       <r>     5.4391    72.0276   323.1009 </r>
       <r>     5.4822    20.8435   324.0000 </r>
       <r>     5.5253    18.0691   324.7794 </r>
       <r>     5.5685    28.2977   326.0000 </r>
       <r>     5.6116     0.0000   326.0000 </r>
       <r>     5.6548     0.0000   326.0000 </r>
       <r>     5.6979     0.0000   326.0000 </r>
       <r>     5.7410     0.0000   326.0000 </r>
       <r>     5.7842     0.0000   326.0000 </r>
       <r>     5.8273     0.0000   326.0000 </r>
       <r>     5.8704     0.0000   326.0000 </r>
       <r>     5.9136     0.0000   326.0000 </r>
       <r>     5.9567     0.0000   326.0000 </r>
       <r>     5.9998     0.0000   326.0000 </r>
       <r>     6.0430     0.0000   326.0000 </r>
       <r>     6.0861   123.0533   331.3078 </r>
       <r>     6.1292   156.3245   338.0508 </r>
       <r>     6.1724   230.5812   347.9967 </r>
       <r>     6.2155     0.0766   348.0000 </r>
       <r>     6.2586   113.4496   352.8936 </r>
       <r>     6.3018    72.0151   355.9999 </r>
       <r>     6.3449     0.0024   356.0000 </r>
       <r>     6.3880     0.0000   356.0000 </r>
       <r>     6.4312     0.0000   356.0000 </r>
       <r>     6.4743     0.0000   356.0000 </r>
       <r>     6.5174     0.0000   356.0000 </r>
       <r>     6.5606     0.0000   356.0000 </r>
       <r>     6.6037     0.0000   356.0000 </r>
       <r>     6.6468     0.0000   356.0000 </r>
       <r>     6.6900     0.0000   356.0000 </r>
       <r>     6.7331     0.0000   356.0000 </r>
       <r>     6.7762     0.0000   356.0000 </r>
       <r>     6.8194     0.0000   356.0000 </r>
       <r>     6.8625     0.0000   356.0000 </r>
      </set>
     </set>
    </array>
   </total>
  </dos>
 </calculation>
 <structure name="finalpos" >
  <crystal>
   <varray name="basis" >
    <v>      12.74739769       0.00000000       0.00000000 </v>
    <v>       0.00000000      12.74739769       0.00000000 </v>
    <v>       0.00000000       0.00000000      12.74739769 </v>
   </varray>
   <i name="volume">   2071.40301882 </i>
   <varray name="rec_basis" >
    <v>       0.07844738       0.00000000       0.00000000 </v>
    <v>       0.00000000       0.07844738       0.00000000 </v>
    <v>       0.00000000       0.00000000       0.07844738 </v>
   </varray>
  </crystal>
  <varray name="positions" >
   <v>       0.00078447       0.00000000       0.00000000 </v>
   <v>       0.50000000       0.00000000       0.00000000 </v>
   <v>       0.00000000       0.50000000       0.00000000 </v>
   <v>       0.50000000       0.50000000       0.00000000 </v>
   <v>       0.00000000       0.00000000       0.50000000 </v>
   <v>       0.50000000       0.00000000       0.50000000 </v>
   <v>       0.00000000       0.50000000       0.50000000 </v>
   <v>       0.50000000       0.50000000       0.50000000 </v>
   <v>       0.25140293       0.25140293       0.00000000 </v>
   <v>       0.74859707       0.25140293       0.00000000 </v>
   <v>       0.25140293       0.74859707       0.00000000 </v>
   <v>       0.74859707       0.74859707       0.00000000 </v>
   <v>       0.25012668       0.25012668       0.50000000 </v>
   <v>       0.74987332       0.25012668       0.50000000 </v>
   <v>       0.25012668       0.74987332       0.50000000 </v>
   <v>       0.74987332       0.74987332       0.50000000 </v>
   <v>       0.25140293       0.00000000       0.25140293 </v>
   <v>       0.74859707       0.00000000       0.25140293 </v>
   <v>       0.25012668       0.50000000       0.25012668 </v>
   <v>       0.74987332       0.50000000       0.25012668 </v>
   <v>       0.25140293       0.00000000       0.74859707 </v>
   <v>       0.74859707       0.00000000       0.74859707 </v>
   <v>       0.25012668       0.50000000       0.74987332 </v>
   <v>       0.74987332       0.50000000       0.74987332 </v>
   <v>       0.00000000       0.25140293       0.25140293 </v>
   <v>       0.50000000       0.25012668       0.25012668 </v>
   <v>       0.00000000       0.74859707       0.25140293 </v>
   <v>       0.50000000       0.74987332       0.25012668 </v>
   <v>       0.00000000       0.25140293       0.74859707 </v>
   <v>       0.50000000       0.25012668       0.74987332 </v>
   <v>       0.00000000       0.74859707       0.74859707 </v>
   <v>       0.50000000       0.74987332       0.74987332 </v>
   <v>       0.12960836       0.12960836       0.12960836 </v>
   <v>       0.62421357       0.12507203       0.12507203 </v>
   <v>       0.12507203       0.62421357       0.12507203 </v>
   <v>       0.62455273       0.62455273       0.12469540 </v>
   <v>       0.12507203       0.12507203       0.62421357 </v>
   <v>       0.62455273       0.12469540       0.62455273 </v>
   <v>       0.12469540       0.62455273       0.62455273 </v>
   <v>       0.62508239       0.62508239       0.62508239 </v>
   <v>       0.37578643       0.12507203       0.12507203 </v>
   <v>       0.87039164       0.12960836       0.12960836 </v>
   <v>       0.37544727       0.62455273       0.12469540 </v>
   <v>       0.87492797       0.62421357       0.12507203 </v>
   <v>       0.37544727       0.12469540       0.62455273 </v>
   <v>       0.87492797       0.12507203       0.62421357 </v>
   <v>       0.37491761       0.62508239       0.62508239 </v>
   <v>       0.87530460       0.62455273       0.62455273 </v>
   <v>       0.12507203       0.37578643       0.12507203 </v>
   <v>       0.62455273       0.37544727       0.12469540 </v>
   <v>       0.12960836       0.87039164       0.12960836 </v>
   <v>       0.62421357       0.87492797       0.12507203 </v>
   <v>       0.12469540       0.37544727       0.62455273 </v>
   <v>       0.62508239       0.37491761       0.62508239 </v>
   <v>       0.12507203       0.87492797       0.62421357 </v>
   <v>       0.62455273       0.87530460       0.62455273 </v>
   <v>       0.37544727       0.37544727       0.12469540 </v>
   <v>       0.87492797       0.37578643       0.12507203 </v>
   <v>       0.37578643       0.87492797       0.12507203 </v>
   <v>       0.87039164       0.87039164       0.12960836 </v>
   <v>       0.37491761       0.37491761       0.62508239 </v>
   <v>       0.87530460       0.37544727       0.62455273 </v>
   <v>       0.37544727       0.87530460       0.62455273 </v>
   <v>       0.87492797       0.87492797       0.62421357 </v>
   <v>       0.12507203       0.12507203       0.37578643 </v>
   <v>       0.62455273       0.12469540       0.37544727 </v>
   <v>       0.12469540       0.62455273       0.37544727 </v>
   <v>       0.62508239       0.62508239       0.37491761 </v>
   <v>       0.12960836       0.12960836       0.87039164 </v>
   <v>       0.62421357       0.12507203       0.87492797 </v>
   <v>       0.12507203       0.62421357       0.87492797 </v>
   <v>       0.62455273       0.62455273       0.87530460 </v>
   <v>       0.37544727       0.12469540       0.37544727 </v>
   <v>       0.87492797       0.12507203       0.37578643 </v>
   <v>       0.37491761       0.62508239       0.37491761 </v>
   <v>       0.87530460       0.62455273       0.37544727 </v>
   <v>       0.37578643       0.12507203       0.87492797 </v>
   <v>       0.87039164       0.12960836       0.87039164 </v>
   <v>       0.37544727       0.62455273       0.87530460 </v>
   <v>       0.87492797       0.62421357       0.87492797 </v>
   <v>       0.12469540       0.37544727       0.37544727 </v>
   <v>       0.62508239       0.37491761       0.37491761 </v>
   <v>       0.12507203       0.87492797       0.37578643 </v>
   <v>       0.62455273       0.87530460       0.37544727 </v>
   <v>       0.12507203       0.37578643       0.87492797 </v>
   <v>       0.62455273       0.37544727       0.87530460 </v>
   <v>       0.12960836       0.87039164       0.87039164 </v>
   <v>       0.62421357       0.87492797       0.87492797 </v>
   <v>       0.37491761       0.37491761       0.37491761 </v>
   <v>       0.87530460       0.37544727       0.37544727 </v>
   <v>       0.37544727       0.87530460       0.37544727 </v>
   <v>       0.87492797       0.87492797       0.37578643 </v>
   <v>       0.37544727       0.37544727       0.87530460 </v>
   <v>       0.87492797       0.37578643       0.87492797 </v>
   <v>       0.37578643       0.87492797       0.87492797 </v>
   <v>       0.87039164       0.87039164       0.87039164 </v>
  </varray>
 </structure>
</modeling>
